# Forces      
# CofR        : (0.000000e+00 0.000000e+00 0.000000e+00)
# Time        forces(pressure viscous porous)	moments(pressure viscous porous)
0.1           	((6.955712e-07 -5.568357e-08 -1.532234e-23) (6.170789e-06 1.438473e-07 -1.005085e-19) (0.000000e+00 0.000000e+00 0.000000e+00)) ((1.392054e-09 1.738928e-08 7.342701e-09) (-3.596181e-09 1.542697e-07 -3.080863e-07) (0.000000e+00 0.000000e+00 0.000000e+00))
0.2           	((1.007527e-06 -3.025663e-07 -1.661007e-23) (4.471791e-06 2.563064e-07 3.102446e-20) (0.000000e+00 0.000000e+00 0.000000e+00)) ((7.564156e-09 2.518818e-08 1.612859e-10) (-6.407660e-09 1.117948e-07 -2.412770e-07) (0.000000e+00 0.000000e+00 0.000000e+00))
0.3           	((1.304046e-06 -3.693145e-07 -1.764803e-23) (3.605783e-06 3.038322e-07 4.353562e-20) (0.000000e+00 0.000000e+00 0.000000e+00)) ((9.232862e-09 3.260116e-08 5.251198e-09) (-7.595806e-09 9.014459e-08 -1.983887e-07) (0.000000e+00 0.000000e+00 0.000000e+00))
0.4           	((1.520647e-06 -3.926222e-07 -1.799069e-23) (3.048879e-06 3.102542e-07 5.847376e-20) (0.000000e+00 0.000000e+00 0.000000e+00)) ((9.815556e-09 3.801618e-08 1.497664e-08) (-7.756354e-09 7.622197e-08 -1.700379e-07) (0.000000e+00 0.000000e+00 0.000000e+00))
0.5           	((1.647871e-06 -3.789027e-07 -1.766623e-23) (2.654235e-06 2.965947e-07 7.308545e-20) (0.000000e+00 0.000000e+00 0.000000e+00)) ((9.472565e-09 4.119677e-08 2.974098e-08) (-7.414868e-09 6.635586e-08 -1.507372e-07) (0.000000e+00 0.000000e+00 0.000000e+00))
0.6           	((1.691050e-06 -3.580089e-07 -1.694902e-23) (2.359927e-06 2.752900e-07 4.023278e-20) (0.000000e+00 0.000000e+00 0.000000e+00)) ((8.950224e-09 4.227624e-08 4.755273e-08) (-6.882251e-09 5.899817e-08 -1.371016e-07) (0.000000e+00 0.000000e+00 0.000000e+00))
0.7           	((1.681056e-06 -3.026722e-07 -1.624229e-23) (2.132551e-06 2.532683e-07 5.186948e-21) (0.000000e+00 0.000000e+00 0.000000e+00)) ((7.566805e-09 4.202640e-08 6.962852e-08) (-6.331708e-09 5.331377e-08 -1.270026e-07) (0.000000e+00 0.000000e+00 0.000000e+00))
0.8           	((1.641895e-06 -2.518206e-07 -1.568661e-23) (1.951533e-06 2.345926e-07 1.314843e-21) (0.000000e+00 0.000000e+00 0.000000e+00)) ((6.295518e-09 4.104737e-08 9.266028e-08) (-5.864815e-09 4.878832e-08 -1.190938e-07) (0.000000e+00 0.000000e+00 0.000000e+00))
0.9           	((1.596388e-06 -2.129908e-07 -1.526462e-23) (1.804359e-06 2.205592e-07 1.686499e-21) (0.000000e+00 0.000000e+00 0.000000e+00)) ((5.324762e-09 3.990969e-08 1.151587e-07) (-5.513980e-09 4.510898e-08 -1.125877e-07) (0.000000e+00 0.000000e+00 0.000000e+00))
1             	((1.558212e-06 -1.950595e-07 -1.489883e-23) (1.682388e-06 2.106152e-07 2.393334e-21) (0.000000e+00 0.000000e+00 0.000000e+00)) ((4.876487e-09 3.895530e-08 1.350999e-07) (-5.265380e-09 4.205969e-08 -1.070366e-07) (0.000000e+00 0.000000e+00 0.000000e+00))
1.1           	((1.529652e-06 -1.885362e-07 -1.450126e-23) (1.579244e-06 2.038007e-07 4.111606e-21) (0.000000e+00 0.000000e+00 0.000000e+00)) ((4.713406e-09 3.824130e-08 1.510229e-07) (-5.095019e-09 3.948110e-08 -1.021742e-07) (0.000000e+00 0.000000e+00 0.000000e+00))
1.2           	((1.508820e-06 -1.871061e-07 -1.400794e-23) (1.490175e-06 1.989770e-07 6.231936e-21) (0.000000e+00 0.000000e+00 0.000000e+00)) ((4.677652e-09 3.772050e-08 1.611511e-07) (-4.974426e-09 3.725437e-08 -9.787422e-08) (0.000000e+00 0.000000e+00 0.000000e+00))
1.3           	((1.492635e-06 -1.866657e-07 -1.341779e-23) (1.411492e-06 1.946995e-07 7.877178e-21) (0.000000e+00 0.000000e+00 0.000000e+00)) ((4.666641e-09 3.731587e-08 1.643891e-07) (-4.867488e-09 3.528730e-08 -9.412444e-08) (0.000000e+00 0.000000e+00 0.000000e+00))
1.4           	((1.477287e-06 -1.843587e-07 -1.276349e-23) (1.340835e-06 1.901458e-07 8.626731e-21) (0.000000e+00 0.000000e+00 0.000000e+00)) ((4.608970e-09 3.693217e-08 1.605473e-07) (-4.753645e-09 3.352087e-08 -9.091026e-08) (0.000000e+00 0.000000e+00 0.000000e+00))
1.5           	((1.460073e-06 -1.818839e-07 -1.209062e-23) (1.276606e-06 1.844898e-07 8.737011e-21) (0.000000e+00 0.000000e+00 0.000000e+00)) ((4.547096e-09 3.650183e-08 1.508481e-07) (-4.612245e-09 3.191515e-08 -8.820943e-08) (0.000000e+00 0.000000e+00 0.000000e+00))
1.6           	((1.435932e-06 -1.800394e-07 -1.140300e-23) (1.217790e-06 1.772905e-07 8.637080e-21) (0.000000e+00 0.000000e+00 0.000000e+00)) ((4.500984e-09 3.589831e-08 1.366464e-07) (-4.432263e-09 3.044476e-08 -8.595650e-08) (0.000000e+00 0.000000e+00 0.000000e+00))
1.7           	((1.401636e-06 -1.752692e-07 -1.069425e-23) (1.163671e-06 1.678458e-07 8.061789e-21) (0.000000e+00 0.000000e+00 0.000000e+00)) ((4.381730e-09 3.504091e-08 1.198523e-07) (-4.196144e-09 2.909179e-08 -8.409702e-08) (0.000000e+00 0.000000e+00 0.000000e+00))
1.8           	((1.354223e-06 -1.698281e-07 -9.954244e-24) (1.113918e-06 1.563799e-07 7.026022e-21) (0.000000e+00 0.000000e+00 0.000000e+00)) ((4.245703e-09 3.385557e-08 1.017097e-07) (-3.909498e-09 2.784795e-08 -8.253858e-08) (0.000000e+00 0.000000e+00 0.000000e+00))
1.9           	((1.292679e-06 -1.627807e-07 -9.179972e-24) (1.068679e-06 1.431564e-07 5.908000e-21) (0.000000e+00 0.000000e+00 0.000000e+00)) ((4.069518e-09 3.231697e-08 8.352403e-08) (-3.578909e-09 2.671697e-08 -8.119812e-08) (0.000000e+00 0.000000e+00 0.000000e+00))
2             	((1.217547e-06 -1.530224e-07 -8.377420e-24) (1.027960e-06 1.288055e-07 4.911133e-21) (0.000000e+00 0.000000e+00 0.000000e+00)) ((3.825561e-09 3.043868e-08 6.634422e-08) (-3.220137e-09 2.569901e-08 -8.000288e-08) (0.000000e+00 0.000000e+00 0.000000e+00))
2.1           	((1.129465e-06 -1.420494e-07 -7.565969e-24) (9.921442e-07 1.131087e-07 4.100522e-21) (0.000000e+00 0.000000e+00 0.000000e+00)) ((3.551234e-09 2.823662e-08 5.093794e-08) (-2.827717e-09 2.480361e-08 -7.892532e-08) (0.000000e+00 0.000000e+00 0.000000e+00))
2.2           	((1.031423e-06 -1.282042e-07 -6.753618e-24) (9.610014e-07 9.742519e-08 3.465008e-21) (0.000000e+00 0.000000e+00 0.000000e+00)) ((3.205104e-09 2.578557e-08 3.795686e-08) (-2.435630e-09 2.402503e-08 -7.788293e-08) (0.000000e+00 0.000000e+00 0.000000e+00))
2.3           	((9.263173e-07 -1.129435e-07 -5.970782e-24) (9.346471e-07 8.188429e-08 2.990091e-21) (0.000000e+00 0.000000e+00 0.000000e+00)) ((2.823587e-09 2.315793e-08 2.769472e-08) (-2.047107e-09 2.336618e-08 -7.685977e-08) (0.000000e+00 0.000000e+00 0.000000e+00))
2.4           	((8.193357e-07 -9.595131e-08 -5.243115e-24) (9.126248e-07 6.760779e-08 2.680081e-21) (0.000000e+00 0.000000e+00 0.000000e+00)) ((2.398783e-09 2.048339e-08 2.033036e-08) (-1.690195e-09 2.281562e-08 -7.580998e-08) (0.000000e+00 0.000000e+00 0.000000e+00))
2.5           	((7.159147e-07 -7.780324e-08 -4.598724e-24) (8.944974e-07 5.540486e-08 2.516617e-21) (0.000000e+00 0.000000e+00 0.000000e+00)) ((1.945081e-09 1.789787e-08 1.580971e-08) (-1.385121e-09 2.236244e-08 -7.471160e-08) (0.000000e+00 0.000000e+00 0.000000e+00))
2.6           	((6.226251e-07 -5.906722e-08 -4.072895e-24) (8.801276e-07 4.551876e-08 2.458880e-21) (0.000000e+00 0.000000e+00 0.000000e+00)) ((1.476681e-09 1.556563e-08 1.393544e-08) (-1.137969e-09 2.200319e-08 -7.357048e-08) (0.000000e+00 0.000000e+00 0.000000e+00))
2.7           	((5.471944e-07 -4.178328e-08 -3.712288e-24) (8.687942e-07 3.894177e-08 2.458463e-21) (0.000000e+00 0.000000e+00 0.000000e+00)) ((1.044582e-09 1.367986e-08 1.437197e-08) (-9.735443e-10 2.171986e-08 -7.236947e-08) (0.000000e+00 0.000000e+00 0.000000e+00))
2.8           	((4.958372e-07 -2.826983e-08 -3.542013e-24) (8.599141e-07 3.600499e-08 2.479944e-21) (0.000000e+00 0.000000e+00 0.000000e+00)) ((7.067458e-10 1.239593e-08 1.662998e-08) (-9.001248e-10 2.149785e-08 -7.111720e-08) (0.000000e+00 0.000000e+00 0.000000e+00))
2.9           	((4.726583e-07 -1.842387e-08 -3.566732e-24) (8.530211e-07 3.631975e-08 2.494752e-21) (0.000000e+00 0.000000e+00 0.000000e+00)) ((4.605967e-10 1.181646e-08 2.031124e-08) (-9.079937e-10 2.132553e-08 -6.984617e-08) (0.000000e+00 0.000000e+00 0.000000e+00))
3             	((4.780011e-07 -1.641398e-08 -3.765826e-24) (8.475181e-07 3.944275e-08 2.492219e-21) (0.000000e+00 0.000000e+00 0.000000e+00)) ((4.103497e-10 1.195003e-08 2.485741e-08) (-9.860687e-10 2.118795e-08 -6.858977e-08) (0.000000e+00 0.000000e+00 0.000000e+00))
3.1           	((5.081414e-07 -2.285112e-08 -4.091305e-24) (8.428895e-07 4.445470e-08 2.479687e-21) (0.000000e+00 0.000000e+00 0.000000e+00)) ((5.712774e-10 1.270353e-08 2.981027e-08) (-1.111368e-09 2.107224e-08 -6.739193e-08) (0.000000e+00 0.000000e+00 0.000000e+00))
3.2           	((5.553610e-07 -3.572592e-08 -4.487220e-24) (8.385292e-07 5.045107e-08 2.433197e-21) (0.000000e+00 0.000000e+00 0.000000e+00)) ((8.931480e-10 1.388403e-08 3.482731e-08) (-1.261277e-09 2.096323e-08 -6.628594e-08) (0.000000e+00 0.000000e+00 0.000000e+00))
3.3           	((6.089839e-07 -5.142522e-08 -4.863562e-24) (8.338659e-07 5.639850e-08 2.356556e-21) (0.000000e+00 0.000000e+00 0.000000e+00)) ((1.285630e-09 1.522460e-08 3.957471e-08) (-1.409962e-09 2.084665e-08 -6.529916e-08) (0.000000e+00 0.000000e+00 0.000000e+00))
3.4           	((6.578700e-07 -6.280752e-08 -5.151887e-24) (8.284976e-07 6.138360e-08 2.263284e-21) (0.000000e+00 0.000000e+00 0.000000e+00)) ((1.570188e-09 1.644675e-08 4.382851e-08) (-1.534590e-09 2.071244e-08 -6.444293e-08) (0.000000e+00 0.000000e+00 0.000000e+00))
3.5           	((6.949221e-07 -6.987155e-08 -5.316147e-24) (8.222416e-07 6.472810e-08 2.155410e-21) (0.000000e+00 0.000000e+00 0.000000e+00)) ((1.746789e-09 1.737305e-08 4.708677e-08) (-1.618203e-09 2.055604e-08 -6.371458e-08) (0.000000e+00 0.000000e+00 0.000000e+00))
3.6           	((7.165889e-07 -7.210971e-08 -5.347876e-24) (8.150450e-07 6.630885e-08 2.038288e-21) (0.000000e+00 0.000000e+00 0.000000e+00)) ((1.802744e-09 1.791472e-08 4.890428e-08) (-1.657721e-09 2.037613e-08 -6.309067e-08) (0.000000e+00 0.000000e+00 0.000000e+00))
3.7           	((7.230352e-07 -7.153874e-08 -5.263428e-24) (8.070200e-07 6.637870e-08 1.918245e-21) (0.000000e+00 0.000000e+00 0.000000e+00)) ((1.788468e-09 1.807588e-08 4.890112e-08) (-1.659468e-09 2.017550e-08 -6.253973e-08) (0.000000e+00 0.000000e+00 0.000000e+00))
3.8           	((7.160336e-07 -7.013469e-08 -5.089946e-24) (7.984554e-07 6.523187e-08 1.802643e-21) (0.000000e+00 0.000000e+00 0.000000e+00)) ((1.753368e-09 1.790084e-08 4.686023e-08) (-1.630797e-09 1.996138e-08 -6.203686e-08) (0.000000e+00 0.000000e+00 0.000000e+00))
3.9           	((6.980798e-07 -6.856615e-08 -4.854826e-24) (7.896668e-07 6.319694e-08 1.690531e-21) (0.000000e+00 0.000000e+00 0.000000e+00)) ((1.714154e-09 1.745199e-08 4.291326e-08) (-1.579924e-09 1.974167e-08 -6.156300e-08) (0.000000e+00 0.000000e+00 0.000000e+00))
4             	((6.710636e-07 -6.816790e-08 -4.579043e-24) (7.808992e-07 6.050386e-08 1.579311e-21) (0.000000e+00 0.000000e+00 0.000000e+00)) ((1.704198e-09 1.677659e-08 3.743675e-08) (-1.512597e-09 1.952248e-08 -6.110722e-08) (0.000000e+00 0.000000e+00 0.000000e+00))
4.1           	((6.367327e-07 -6.739167e-08 -4.282441e-24) (7.723599e-07 5.723810e-08 1.468823e-21) (0.000000e+00 0.000000e+00 0.000000e+00)) ((1.684792e-09 1.591832e-08 3.119811e-08) (-1.430953e-09 1.930900e-08 -6.066493e-08) (0.000000e+00 0.000000e+00 0.000000e+00))
4.2           	((5.966748e-07 -6.479320e-08 -3.983005e-24) (7.642504e-07 5.342830e-08 1.368633e-21) (0.000000e+00 0.000000e+00 0.000000e+00)) ((1.619830e-09 1.491687e-08 2.506138e-08) (-1.335708e-09 1.910626e-08 -6.023265e-08) (0.000000e+00 0.000000e+00 0.000000e+00))
4.3           	((5.531334e-07 -6.102831e-08 -3.698755e-24) (7.566294e-07 4.936207e-08 1.274486e-21) (0.000000e+00 0.000000e+00 0.000000e+00)) ((1.525707e-09 1.382834e-08 1.974972e-08) (-1.234052e-09 1.891573e-08 -5.979734e-08) (0.000000e+00 0.000000e+00 0.000000e+00))
4.4           	((5.094653e-07 -5.506381e-08 -3.449677e-24) (7.495825e-07 4.538858e-08 1.195744e-21) (0.000000e+00 0.000000e+00 0.000000e+00)) ((1.376595e-09 1.273663e-08 1.594185e-08) (-1.134714e-09 1.873956e-08 -5.934581e-08) (0.000000e+00 0.000000e+00 0.000000e+00))
4.5           	((4.696076e-07 -4.771563e-08 -3.257559e-24) (7.432102e-07 4.191509e-08 1.127717e-21) (0.000000e+00 0.000000e+00 0.000000e+00)) ((1.192890e-09 1.174019e-08 1.393680e-08) (-1.047877e-09 1.858025e-08 -5.886761e-08) (0.000000e+00 0.000000e+00 0.000000e+00))
4.6           	((4.379608e-07 -3.937191e-08 -3.141220e-24) (7.376352e-07 3.930944e-08 1.065764e-21) (0.000000e+00 0.000000e+00 0.000000e+00)) ((9.842978e-10 1.094902e-08 1.381769e-08) (-9.827360e-10 1.844088e-08 -5.835904e-08) (0.000000e+00 0.000000e+00 0.000000e+00))
4.7           	((4.185780e-07 -3.256904e-08 -3.116613e-24) (7.328702e-07 3.803620e-08 1.013936e-21) (0.000000e+00 0.000000e+00 0.000000e+00)) ((8.142262e-10 1.046445e-08 1.532869e-08) (-9.509051e-10 1.832176e-08 -5.781692e-08) (0.000000e+00 0.000000e+00 0.000000e+00))
4.8           	((4.139856e-07 -2.813470e-08 -3.185221e-24) (7.289031e-07 3.817409e-08 9.676860e-22) (0.000000e+00 0.000000e+00 0.000000e+00)) ((7.033676e-10 1.034964e-08 1.810562e-08) (-9.543523e-10 1.822258e-08 -5.725305e-08) (0.000000e+00 0.000000e+00 0.000000e+00))
4.9           	((4.244696e-07 -2.745176e-08 -3.337902e-24) (7.256321e-07 3.962118e-08 9.284621e-22) (0.000000e+00 0.000000e+00 0.000000e+00)) ((6.862936e-10 1.061174e-08 2.167136e-08) (-9.905294e-10 1.814080e-08 -5.668614e-08) (0.000000e+00 0.000000e+00 0.000000e+00))
5             	((4.475340e-07 -3.107423e-08 -3.545548e-24) (7.228375e-07 4.210606e-08 9.072250e-22) (0.000000e+00 0.000000e+00 0.000000e+00)) ((7.768655e-10 1.118835e-08 2.551299e-08) (-1.052651e-09 1.807094e-08 -5.613698e-08) (0.000000e+00 0.000000e+00 0.000000e+00))
