/*--------------------------------*- C++ -*----------------------------------*\
  =========                 |
  \\      /  F ield         | OpenFOAM: The Open Source CFD Toolbox
   \\    /   O peration     | Website:  https://openfoam.org
    \\  /    A nd           | Version:  7
     \\/     M anipulation  |
\*---------------------------------------------------------------------------*/
FoamFile
{
    version     2.0;
    format      ascii;
    class       volScalarField;
    location    "0";
    object      gradTy;
}
// * * * * * * * * * * * * * * * * * * * * * * * * * * * * * * * * * * * * * //

dimensions      [0 -1 0 1 0 0 0];

internalField   nonuniform List<scalar> 
4000
(
0.00226767
0.00744321
0.0151011
0.0296773
0.0659897
0.186956
0.351199
0.427095
0.35527
0.139079
-0.139065
-0.355271
-0.427099
-0.351206
-0.18696
-0.0659841
-0.0296764
-0.0151053
-0.00744568
-0.00226725
0.00584353
0.0192248
0.0388437
0.0742753
0.151509
0.353585
0.609801
0.718387
0.586292
0.227104
-0.227122
-0.58625
-0.71832
-0.609792
-0.353613
-0.151517
-0.0742809
-0.0388611
-0.0192459
-0.0058549
0.00892033
0.0289193
0.0564022
0.10043
0.177893
0.312738
0.454301
0.494228
0.383535
0.144486
-0.144484
-0.383504
-0.49421
-0.45433
-0.312764
-0.177886
-0.10042
-0.0564105
-0.0289372
-0.00893172
0.0109156
0.0347831
0.0653376
0.108865
0.173207
0.26069
0.336216
0.341671
0.254332
0.0938236
-0.0937575
-0.254348
-0.341755
-0.336281
-0.260697
-0.173191
-0.108859
-0.0653372
-0.0347811
-0.0109133
0.0117418
0.0368148
0.0668007
0.105161
0.154169
0.209411
0.247521
0.237677
0.170904
0.0619582
-0.0620204
-0.170979
-0.237732
-0.247515
-0.209368
-0.154136
-0.105149
-0.0667947
-0.0368088
-0.0117383
0.011568
0.0357376
0.0629066
0.0944799
0.130023
0.164022
0.181481
0.166391
0.116292
0.0415758
-0.0416649
-0.116346
-0.166389
-0.181438
-0.16398
-0.130008
-0.0944837
-0.0629124
-0.0357389
-0.0115668
0.0106772
0.0325568
0.0558366
0.0806827
0.105667
0.126079
0.132607
0.117184
0.0800757
0.0283569
-0.0283239
-0.0800363
-0.117151
-0.132605
-0.126114
-0.105718
-0.0807225
-0.0558543
-0.0325571
-0.0106732
0.00935898
0.0282323
0.0473988
0.0663911
0.0836197
0.0955665
0.0966155
0.082899
0.055621
0.0195305
-0.019512
-0.0556099
-0.0829069
-0.096647
-0.0956071
-0.083646
-0.0663954
-0.047389
-0.0282182
-0.00935144
0.0078549
0.0234955
0.0387824
0.053004
0.0647578
0.0715877
0.0701819
0.0588316
0.0388958
0.0135523
-0.01358
-0.0389244
-0.0588602
-0.0702038
-0.0715933
-0.0647459
-0.0529859
-0.0387696
-0.0234898
-0.00785402
0.00635962
0.0188925
0.0307638
0.0412378
0.0492056
0.0530246
0.050778
0.0418148
0.027337
0.00947341
-0.00949852
-0.0273592
-0.0418298
-0.0507813
-0.0530165
-0.0491949
-0.041235
-0.0307716
-0.0189046
-0.00636634
0.00499774
0.0147617
0.023775
0.0313824
0.0367604
0.0388443
0.0365456
0.0296992
0.0192592
0.00665336
-0.00665756
-0.0192627
-0.0297012
-0.0365458
-0.0388456
-0.036768
-0.031398
-0.0237947
-0.014779
-0.00500524
0.00382687
0.0112507
0.017962
0.023423
0.0270435
0.0281482
0.0261316
0.0210306
0.0135585
0.0046734
-0.00467122
-0.0135579
-0.0210332
-0.0261384
-0.02816
-0.0270596
-0.0234404
-0.0179766
-0.0112603
-0.00383034
0.00286068
0.00837966
0.0132878
0.0171662
0.0196005
0.0201675
0.0185372
0.0148135
0.00950994
0.00326998
-0.00327494
-0.00951627
-0.0148225
-0.0185492
-0.0201812
-0.0196133
-0.017175
-0.0132914
-0.00837965
-0.00286002
0.00208868
0.00610178
0.00962669
0.0123497
0.0139841
0.0142659
0.0130184
0.0103518
0.00662628
0.00227316
-0.0022849
-0.0066381
-0.010364
-0.0130303
-0.014276
-0.0139902
-0.0123506
-0.00962311
-0.00609677
-0.00208618
0.00148838
0.00433973
0.00682143
0.00870642
0.00979897
0.00993485
0.00902072
0.00714998
0.0045688
0.00156494
-0.00157764
-0.00458086
-0.007161
-0.00902992
-0.00994086
-0.0098007
-0.00870384
-0.00681597
-0.00433407
-0.00148588
0.00103206
0.00300504
0.00471065
0.00598992
0.00671191
0.00677529
0.00613126
0.00485026
0.00309653
0.00105941
-0.00107139
-0.00310768
-0.00486007
-0.00613889
-0.00677967
-0.00671246
-0.00598679
-0.00470518
-0.0029996
-0.00102961
0.000690554
0.0020085
0.00314189
0.00398369
0.00444899
0.0044768
0.00404192
0.00319338
0.00203743
0.000695359
-0.0007088
-0.00204986
-0.00320415
-0.00405011
-0.00448154
-0.00444977
-0.00398038
-0.00313585
-0.00200223
-0.000687272
0.000435657
0.0012662
0.0019783
0.00250341
0.00278869
0.00279984
0.0025242
0.00199277
0.0012709
0.00043255
-0.00044476
-0.00128133
-0.00200068
-0.00252946
-0.00280286
-0.00278942
-0.0025015
-0.00197539
-0.00126395
-0.000434438
0.000240242
0.000697501
0.00108935
0.00137791
0.00153204
0.0015357
0.00138471
0.00109514
0.000700774
0.000240984
-0.000240911
-0.00069929
-0.00109197
-0.00138044
-0.00153116
-0.00152724
-0.00137335
-0.00108792
-0.000699741
-0.000243481
0.000315006
0.000937193
0.00153848
0.00210715
0.00263119
0.00301275
0.00272794
0.00154495
0.000318774
-6.93498e-05
7.41816e-05
-0.000313729
-0.00153977
-0.00272285
-0.00300778
-0.00262616
-0.00210274
-0.00153668
-0.000938216
-0.000317504
0.00226271
0.00743917
0.0150988
0.0296809
0.0660062
0.186978
0.351206
0.427083
0.355256
0.139072
-0.139073
-0.355277
-0.427093
-0.351191
-0.186949
-0.0659826
-0.0296788
-0.0151087
-0.00744955
-0.00226857
0.00584335
0.0192281
0.0388455
0.0742728
0.151509
0.353592
0.609805
0.718386
0.586311
0.227145
-0.227098
-0.586269
-0.718357
-0.609811
-0.353613
-0.151521
-0.0742877
-0.0388671
-0.0192505
-0.00585635
0.00892609
0.0289293
0.0564106
0.100428
0.17788
0.312727
0.454303
0.49424
0.383564
0.144528
-0.144459
-0.383527
-0.494262
-0.454366
-0.312774
-0.17789
-0.100426
-0.0564137
-0.0289374
-0.00893161
0.0109158
0.0347857
0.0653479
0.108885
0.17323
0.260711
0.336227
0.34166
0.2543
0.0937879
-0.0937792
-0.254357
-0.341755
-0.336275
-0.260692
-0.173191
-0.10886
-0.0653373
-0.0347797
-0.0109128
0.0117393
0.0368069
0.0667911
0.105154
0.154168
0.209417
0.24753
0.23768
0.170893
0.0619428
-0.062021
-0.170963
-0.237712
-0.247503
-0.209365
-0.154137
-0.105149
-0.0667935
-0.0368072
-0.0117379
0.0115691
0.0357339
0.0628928
0.0944552
0.129992
0.163999
0.181479
0.16641
0.116317
0.0415969
-0.0416469
-0.116331
-0.166381
-0.181437
-0.163982
-0.130009
-0.0944831
-0.0629109
-0.0357376
-0.0115666
0.0106813
0.0325651
0.0558459
0.0806877
0.105662
0.126067
0.132598
0.117184
0.0800798
0.0283595
-0.0283248
-0.0800398
-0.117156
-0.132609
-0.126116
-0.105717
-0.0807212
-0.0558533
-0.0325565
-0.0106733
0.00935857
0.0282345
0.047407
0.0664033
0.0836303
0.0955707
0.0966127
0.0828928
0.0556141
0.019523
-0.0195196
-0.0556163
-0.0829109
-0.0966481
-0.0956057
-0.0836442
-0.0663946
-0.0473889
-0.0282183
-0.00935164
0.00785159
0.0234903
0.0387801
0.0530057
0.0647627
0.0715927
0.0701838
0.0588304
0.0388932
0.0135498
-0.0135816
-0.0389245
-0.0588587
-0.0702014
-0.071591
-0.0647449
-0.0529863
-0.0387704
-0.0234903
-0.00785427
0.00635747
0.0188878
0.0307589
0.0412336
0.0492035
0.053025
0.0507795
0.0418162
0.0273384
0.00947532
-0.00949595
-0.0273562
-0.0418269
-0.0507791
-0.0530156
-0.0491954
-0.0412364
-0.0307729
-0.0189052
-0.00636658
0.00499782
0.0147612
0.0237735
0.0313797
0.0367575
0.0388428
0.0365456
0.0297002
0.0192606
0.00665514
-0.00665556
-0.0192609
-0.0296999
-0.0365454
-0.0388463
-0.0367694
-0.0313997
-0.0237959
-0.0147794
-0.00500541
0.00382811
0.0112527
0.0179637
0.0234233
0.0270427
0.0281473
0.0261312
0.0210306
0.0135584
0.00467336
-0.00467128
-0.0135582
-0.0210338
-0.0261394
-0.0281613
-0.0270611
-0.0234417
-0.0179774
-0.0112606
-0.00383045
0.00286181
0.00838166
0.01329
0.0171677
0.0196012
0.0201676
0.0185371
0.0148133
0.00950938
0.00326917
-0.00327588
-0.00951729
-0.0148236
-0.0185503
-0.0201822
-0.0196142
-0.0171758
-0.0132918
-0.00837977
-0.00286013
0.00208916
0.00610258
0.00962788
0.0123509
0.013985
0.0142665
0.0130187
0.010352
0.00662614
0.00227275
-0.00228545
-0.00663868
-0.0103645
-0.0130307
-0.0142762
-0.0139905
-0.0123509
-0.00962341
-0.00609692
-0.00208636
0.00148832
0.00433943
0.00682143
0.00870661
0.00979921
0.00993508
0.00902095
0.00715023
0.00456901
0.00156507
-0.00157754
-0.00458076
-0.00716083
-0.00902958
-0.00994039
-0.0098003
-0.0087037
-0.00681605
-0.00433422
-0.0014861
0.0010317
0.00300397
0.00470951
0.00598881
0.00671089
0.00677437
0.00613059
0.00484998
0.00309662
0.00105981
-0.00107073
-0.00310687
-0.00485912
-0.0061377
-0.00677828
-0.0067111
-0.00598577
-0.00470457
-0.00299934
-0.00102977
0.000690065
0.00200702
0.00313986
0.00398121
0.00444627
0.00447393
0.00403934
0.00319157
0.00203648
0.000695267
-0.000708135
-0.00204866
-0.00320251
-0.00404795
-0.00447889
-0.0044469
-0.00397763
-0.00313339
-0.00200042
-0.000686807
0.000435693
0.0012665
0.00197904
0.00250407
0.002789
0.00279934
0.00252322
0.00199191
0.00127036
0.000432366
-0.000444709
-0.00128144
-0.00200116
-0.00253023
-0.00280375
-0.00279042
-0.00250243
-0.00197573
-0.00126382
-0.000434566
0.000241873
0.000703286
0.00109989
0.00139118
0.0015457
0.00154697
0.00139233
0.00109941
0.00070249
0.000240705
-0.000243535
-0.000705483
-0.00110266
-0.00139542
-0.00154924
-0.00154696
-0.00139237
-0.00110237
-0.000706966
-0.000245557
0.000316348
0.000941904
0.00154711
0.0021182
0.00264275
0.00302251
0.00273464
0.00154862
0.00032014
-6.97647e-05
7.17146e-05
-0.000319213
-0.00154904
-0.00273575
-0.0030233
-0.00264299
-0.00211889
-0.0015489
-0.000944072
-0.000318941
0.00226779
0.00744895
0.015109
0.0296874
0.0660053
0.186969
0.351193
0.427072
0.355249
0.139066
-0.13908
-0.355278
-0.427086
-0.351184
-0.186949
-0.0659883
-0.0296841
-0.0151111
-0.00744999
-0.00226828
0.00584803
0.0192391
0.0388624
0.0742975
0.151539
0.353616
0.609813
0.718373
0.586277
0.227098
-0.227141
-0.586287
-0.718349
-0.609798
-0.35361
-0.151526
-0.0742933
-0.0388692
-0.0192503
-0.00585575
0.00892406
0.0289258
0.0564101
0.100438
0.177903
0.312755
0.454325
0.494244
0.383542
0.14449
-0.144492
-0.383536
-0.494252
-0.454355
-0.312769
-0.177889
-0.100426
-0.0564125
-0.0289361
-0.00893102
0.0109135
0.0347779
0.0653342
0.108868
0.173212
0.260697
0.336224
0.34167
0.254314
0.0937998
-0.093768
-0.254343
-0.341742
-0.336269
-0.26069
-0.17319
-0.108859
-0.0653354
-0.0347785
-0.0109123
0.0117399
0.0368054
0.0667851
0.105144
0.154154
0.209404
0.247525
0.237686
0.170905
0.061953
-0.0620138
-0.170957
-0.237709
-0.247502
-0.209365
-0.154136
-0.105147
-0.0667918
-0.0368063
-0.0117376
0.0115708
0.0357375
0.0628965
0.0944572
0.12999
0.163993
0.181474
0.166409
0.116319
0.0415963
-0.0416492
-0.116333
-0.166381
-0.181437
-0.163981
-0.130007
-0.0944814
-0.0629099
-0.0357372
-0.0115664
0.0106806
0.0325659
0.0558494
0.0806931
0.105666
0.126068
0.132595
0.11718
0.0800765
0.0283554
-0.0283287
-0.0800416
-0.117156
-0.132607
-0.126114
-0.105716
-0.0807202
-0.0558528
-0.0325564
-0.0106732
0.00935587
0.0282306
0.0474048
0.0664038
0.0836323
0.0955721
0.0966126
0.082892
0.055613
0.0195218
-0.0195201
-0.0556151
-0.0829083
-0.0966456
-0.095604
-0.0836432
-0.0663942
-0.0473888
-0.0282183
-0.0093516
0.00784903
0.0234854
0.0387751
0.0530019
0.0647606
0.0715922
0.0701845
0.0588317
0.0388948
0.0135515
-0.0135796
-0.0389219
-0.0588559
-0.0701993
-0.0715898
-0.0647443
-0.052986
-0.0387703
-0.0234902
-0.00785419
0.00635619
0.0188849
0.030755
0.0412293
0.0491998
0.0530228
0.0507791
0.0418173
0.0273401
0.0094773
-0.00949384
-0.0273539
-0.0418247
-0.0507775
-0.0530146
-0.0491947
-0.0412357
-0.0307724
-0.0189049
-0.00636645
0.00499749
0.0147603
0.0237717
0.031377
0.0367544
0.0388401
0.0365441
0.0296998
0.019261
0.00665591
-0.00665455
-0.0192596
-0.0296985
-0.0365441
-0.0388451
-0.0367683
-0.0313986
-0.0237951
-0.014779
-0.00500526
0.00382798
0.0112524
0.0179629
0.0234219
0.0270407
0.0281451
0.0261294
0.0210295
0.0135579
0.00467328
-0.00467094
-0.0135574
-0.0210326
-0.0261379
-0.0281597
-0.0270596
-0.0234404
-0.0179766
-0.0112601
-0.00383029
0.00286144
0.00838105
0.0132892
0.0171668
0.0195999
0.0201662
0.0185358
0.0148123
0.00950883
0.00326909
-0.00327547
-0.00951632
-0.0148221
-0.0185485
-0.0201804
-0.0196126
-0.0171745
-0.0132911
-0.00837944
-0.00286003
0.00208852
0.00610149
0.00962672
0.0123498
0.013984
0.0142655
0.0130179
0.0103514
0.0066259
0.00227297
-0.00228474
-0.00663746
-0.0103628
-0.0130287
-0.0142743
-0.0139888
-0.0123498
-0.00962296
-0.00609681
-0.00208634
0.00148754
0.004338
0.00681991
0.00870528
0.00979813
0.0099342
0.00902037
0.0071499
0.00456899
0.00156551
-0.00157663
-0.00457942
-0.00715906
-0.00902751
-0.00993832
-0.00979865
-0.00870274
-0.00681579
-0.00433425
-0.00148611
0.00103078
0.00300214
0.00470744
0.00598698
0.00670939
0.00677325
0.00612993
0.00484968
0.00309672
0.00106049
-0.00106952
-0.00310527
-0.00485715
-0.00613545
-0.00677603
-0.00670929
-0.00598477
-0.00470441
-0.00299951
-0.00102986
0.000688884
0.00200437
0.00313648
0.00397788
0.00444334
0.00447169
0.00403793
0.0031908
0.00203638
0.000696069
-0.000706407
-0.00204615
-0.00319934
-0.00404434
-0.00447525
-0.00444379
-0.00397559
-0.00313257
-0.00200027
-0.000686834
0.000434355
0.00126319
0.00197435
0.00249906
0.00278444
0.00279581
0.00252095
0.00199076
0.00127035
0.000433788
-0.000441694
-0.00127687
-0.0019952
-0.00252325
-0.00279629
-0.00278338
-0.00249699
-0.00197258
-0.00126236
-0.00043414
0.000241671
0.000702579
0.00109836
0.00138975
0.00154565
0.00154847
0.00139442
0.00110114
0.000703914
0.000242708
-0.000240122
-0.00070055
-0.00109671
-0.00138919
-0.00154341
-0.00154262
-0.00139102
-0.00110411
-0.000708779
-0.000245788
0.000316803
0.000942906
0.00154812
0.00211958
0.00264525
0.00302599
0.00273798
0.0015509
0.000321379
-6.88055e-05
7.31209e-05
-0.000317258
-0.00154696
-0.00273411
-0.0030225
-0.00264355
-0.00212146
-0.00155302
-0.000947057
-0.000319535
0.00226661
0.00744611
0.0151057
0.0296844
0.0660024
0.186964
0.351186
0.427066
0.355248
0.13907
-0.139071
-0.355269
-0.427079
-0.351181
-0.186948
-0.0659878
-0.0296829
-0.0151096
-0.00744898
-0.00226794
0.00584647
0.0192336
0.038853
0.0742864
0.151529
0.353609
0.609808
0.718372
0.586281
0.227108
-0.227129
-0.586274
-0.718339
-0.609793
-0.353609
-0.151525
-0.0742909
-0.0388665
-0.0192486
-0.00585523
0.0089242
0.0289232
0.0564021
0.100426
0.177889
0.312745
0.454323
0.49425
0.383553
0.144501
-0.144484
-0.383531
-0.49425
-0.454354
-0.312769
-0.177888
-0.100423
-0.0564103
-0.0289349
-0.00893078
0.0109149
0.0347794
0.0653333
0.108863
0.173204
0.260688
0.336218
0.341671
0.254321
0.093807
-0.093764
-0.254342
-0.341743
-0.33627
-0.260689
-0.173188
-0.108856
-0.0653338
-0.0347779
-0.0109123
0.0117412
0.0368081
0.0667882
0.105146
0.154154
0.2094
0.24752
0.237683
0.170903
0.0619529
-0.0620151
-0.170959
-0.23771
-0.247502
-0.209363
-0.154133
-0.105145
-0.0667909
-0.0368062
-0.0117377
0.0115708
0.0357384
0.0628991
0.0944612
0.129993
0.163993
0.18147
0.166404
0.116314
0.0415929
-0.0416518
-0.116334
-0.166381
-0.181435
-0.163979
-0.130005
-0.0944803
-0.0629098
-0.0357376
-0.0115666
0.0106793
0.0325641
0.055849
0.0806946
0.105668
0.126068
0.132593
0.117176
0.0800733
0.0283536
-0.028329
-0.0800404
-0.117153
-0.132605
-0.126112
-0.105715
-0.0807202
-0.0558533
-0.0325569
-0.0106734
0.00935435
0.0282277
0.0474024
0.0664029
0.0836325
0.0955724
0.096612
0.0828909
0.0556125
0.0195223
-0.0195187
-0.0556133
-0.0829066
-0.0966444
-0.0956038
-0.0836437
-0.0663948
-0.0473893
-0.0282187
-0.00935169
0.00784818
0.0234833
0.0387727
0.0530001
0.06476
0.0715926
0.0701852
0.0588324
0.0388957
0.0135525
-0.0135787
-0.0389214
-0.058856
-0.0702001
-0.071591
-0.0647453
-0.0529865
-0.0387704
-0.0234902
-0.00785415
0.00635604
0.0188841
0.0307536
0.0412277
0.0491987
0.0530225
0.0507796
0.0418181
0.0273409
0.0094777
-0.00949403
-0.0273547
-0.041826
-0.0507789
-0.0530158
-0.0491952
-0.0412355
-0.0307719
-0.0189045
-0.00636628
0.00499766
0.0147602
0.023771
0.0313758
0.036753
0.038839
0.0365436
0.0296997
0.0192609
0.00665563
-0.00665519
-0.0192605
-0.0296994
-0.0365448
-0.0388453
-0.0367678
-0.0313975
-0.023794
-0.0147783
-0.005005
0.00382815
0.0112524
0.0179625
0.023421
0.0270393
0.0281435
0.026128
0.0210284
0.0135571
0.00467265
-0.00467151
-0.0135578
-0.0210327
-0.0261377
-0.028159
-0.0270584
-0.0234389
-0.0179753
-0.0112593
-0.00383003
0.0028615
0.00838097
0.0132889
0.0171661
0.0195987
0.0201647
0.0185343
0.0148109
0.00950781
0.00326841
-0.00327582
-0.0095163
-0.0148216
-0.0185476
-0.0201792
-0.0196112
-0.0171731
-0.01329
-0.00837878
-0.00285982
0.0020885
0.00610129
0.00962639
0.0123493
0.0139831
0.0142644
0.0130166
0.0103502
0.00662496
0.00227238
-0.00228495
-0.00663726
-0.0103622
-0.0130277
-0.0142731
-0.0139876
-0.0123486
-0.00962211
-0.0060964
-0.00208624
0.00148749
0.00433777
0.00681958
0.00870478
0.00979744
0.00993339
0.00901942
0.00714893
0.00456818
0.00156496
-0.00157686
-0.0045793
-0.00715857
-0.00902669
-0.00993729
-0.00979753
-0.00870173
-0.00681513
-0.00433398
-0.00148606
0.0010307
0.00300184
0.00470703
0.00598631
0.00670855
0.00677234
0.00612894
0.00484873
0.00309595
0.00105995
-0.00106982
-0.0031053
-0.00485682
-0.00613475
-0.00677502
-0.00670809
-0.00598359
-0.00470354
-0.00299907
-0.00102975
0.000688647
0.00200374
0.00313559
0.00397657
0.00444182
0.00447021
0.00403655
0.00318964
0.00203549
0.000695401
-0.000706843
-0.00204629
-0.00319909
-0.00404374
-0.00447437
-0.00444266
-0.00397438
-0.00313166
-0.00199983
-0.000686722
0.000433765
0.00126181
0.00197245
0.00249657
0.00278167
0.00279303
0.00251844
0.00198884
0.00126911
0.000433064
-0.000442079
-0.00127702
-0.00199514
-0.00252296
-0.00279561
-0.00278207
-0.00249521
-0.00197096
-0.00126129
-0.00043372
0.000240687
0.000700404
0.00109516
0.00138543
0.00154112
0.00154464
0.00139175
0.0010997
0.000703319
0.00024256
-0.000239932
-0.000699936
-0.0010955
-0.00138737
-0.00154078
-0.00153891
-0.00138692
-0.00110146
-0.000707703
-0.000245297
0.000316225
0.000941655
0.00154617
0.00211685
0.00264249
0.003024
0.00273702
0.00155073
0.00032152
-6.86269e-05
7.34214e-05
-0.000316596
-0.00154572
-0.00273233
-0.0030202
-0.00264069
-0.00211863
-0.00155163
-0.000946914
-0.000319435
0.0022669
0.00744603
0.0151044
0.0296815
0.0659983
0.18696
0.351183
0.427066
0.355252
0.139075
-0.139067
-0.355266
-0.427078
-0.351181
-0.186948
-0.0659879
-0.0296827
-0.0151093
-0.00744865
-0.00226784
0.00584733
0.0192345
0.0388526
0.0742836
0.151524
0.353602
0.609803
0.718371
0.586285
0.227114
-0.227124
-0.586271
-0.718339
-0.609794
-0.35361
-0.151525
-0.0742904
-0.0388658
-0.0192481
-0.00585515
0.00892509
0.0289253
0.0564044
0.100427
0.177889
0.312743
0.45432
0.494248
0.383553
0.144502
-0.144483
-0.383532
-0.494251
-0.454356
-0.31277
-0.177888
-0.100422
-0.0564095
-0.0289347
-0.00893092
0.0109152
0.034781
0.0653359
0.108866
0.173206
0.260688
0.336217
0.341669
0.254319
0.0938064
-0.0937651
-0.254344
-0.341746
-0.336272
-0.26069
-0.173187
-0.108855
-0.0653331
-0.034778
-0.0109126
0.0117408
0.0368081
0.0667894
0.105149
0.154157
0.209402
0.24752
0.237681
0.170902
0.0619512
-0.0620174
-0.170963
-0.237713
-0.247503
-0.209362
-0.154131
-0.105143
-0.0667904
-0.0368066
-0.0117381
0.0115698
0.0357368
0.0628981
0.0944616
0.129994
0.163994
0.18147
0.166402
0.116312
0.0415909
-0.041654
-0.116336
-0.166381
-0.181433
-0.163976
-0.130003
-0.094479
-0.0629097
-0.0357381
-0.011567
0.0106783
0.0325621
0.0558468
0.0806927
0.105667
0.126066
0.13259
0.117174
0.0800713
0.0283529
-0.0283284
-0.0800385
-0.11715
-0.132601
-0.126109
-0.105713
-0.0807196
-0.0558536
-0.0325575
-0.0106737
0.00935386
0.0282266
0.047401
0.0664012
0.0836307
0.09557
0.0966089
0.0828877
0.0556105
0.0195222
-0.0195171
-0.0556104
-0.0829032
-0.0966415
-0.0956021
-0.0836432
-0.066395
-0.0473898
-0.028219
-0.00935184
0.00784825
0.0234833
0.0387727
0.0530003
0.0647602
0.0715925
0.0701843
0.0588307
0.038894
0.0135514
-0.013579
-0.0389212
-0.0588557
-0.0702002
-0.0715915
-0.064746
-0.0529869
-0.0387705
-0.0234901
-0.00785411
0.00635624
0.0188843
0.0307539
0.0412284
0.0492
0.0530241
0.0507808
0.0418183
0.0273401
0.00947616
-0.00949592
-0.0273567
-0.041828
-0.0507808
-0.0530172
-0.0491959
-0.0412354
-0.0307714
-0.018904
-0.00636608
0.0049977
0.01476
0.0237707
0.0313756
0.0367534
0.03884
0.0365448
0.0297005
0.0192608
0.00665456
-0.00665695
-0.0192626
-0.0297014
-0.0365464
-0.0388461
-0.0367676
-0.0313967
-0.023793
-0.0147775
-0.0050047
0.00382808
0.011252
0.0179617
0.02342
0.0270384
0.0281431
0.026128
0.0210285
0.013557
0.00467212
-0.00467238
-0.0135588
-0.0210335
-0.026138
-0.0281588
-0.0270575
-0.0234376
-0.017974
-0.0112584
-0.00382971
0.00286142
0.00838058
0.0132881
0.0171649
0.0195974
0.0201634
0.0185333
0.0148103
0.00950738
0.00326806
-0.00327607
-0.00951641
-0.0148215
-0.0185472
-0.0201784
-0.01961
-0.0171717
-0.0132888
-0.00837799
-0.00285956
0.00208848
0.00610112
0.00962597
0.0123485
0.0139821
0.0142632
0.0130155
0.0103493
0.00662424
0.00227192
-0.00228512
-0.00663718
-0.0103619
-0.0130272
-0.0142724
-0.0139867
-0.0123477
-0.00962126
-0.00609585
-0.00208606
0.00148754
0.00433781
0.00681952
0.00870455
0.00979699
0.00993267
0.00901852
0.00714803
0.00456739
0.00156438
-0.00157716
-0.00457936
-0.00715846
-0.00902643
-0.00993694
-0.00979708
-0.00870123
-0.00681468
-0.00433368
-0.00148597
0.00103079
0.00300195
0.00470708
0.00598628
0.00670835
0.00677187
0.00612822
0.0048479
0.00309516
0.00105933
-0.00107019
-0.00310541
-0.00485671
-0.00613447
-0.00677465
-0.00670764
-0.00598303
-0.00470293
-0.0029986
-0.00102958
0.000688642
0.00200357
0.00313526
0.00397611
0.00444123
0.00446945
0.00403566
0.00318868
0.00203457
0.000694643
-0.000707237
-0.00204616
-0.00319841
-0.00404267
-0.00447317
-0.00444144
-0.00397315
-0.00313054
-0.00199902
-0.000686396
0.000433478
0.00126099
0.00197137
0.00249548
0.00278056
0.00279176
0.00251699
0.00198741
0.00126797
0.000432511
-0.000441806
-0.00127588
-0.00199335
-0.0025209
-0.00279371
-0.00278054
-0.00249392
-0.0019698
-0.00126038
-0.000433246
0.00024014
0.000699208
0.00109389
0.00138393
0.00153916
0.0015424
0.00138965
0.00109822
0.000702739
0.00024291
-0.000238807
-0.00069826
-0.00109338
-0.00138519
-0.00153919
-0.00153783
-0.00138566
-0.00110015
-0.000706776
-0.00024484
0.000315918
0.000941077
0.00154564
0.002116
0.00264115
0.0030225
0.00273583
0.00155016
0.000321566
-6.81592e-05
7.40754e-05
-0.000315872
-0.00154481
-0.00273136
-0.0030196
-0.00264026
-0.00211785
-0.00155082
-0.000946459
-0.000319272
0.00226722
0.00744645
0.0151051
0.0296827
0.0659993
0.18696
0.351183
0.427065
0.35525
0.139073
-0.139069
-0.355267
-0.427078
-0.35118
-0.186947
-0.0659868
-0.0296822
-0.0151094
-0.00744885
-0.00226791
0.00584734
0.0192348
0.0388537
0.0742857
0.151526
0.353604
0.609803
0.718369
0.586282
0.227111
-0.227126
-0.586272
-0.718338
-0.609792
-0.353608
-0.151523
-0.0742895
-0.0388656
-0.0192481
-0.00585521
0.00892452
0.0289248
0.0564047
0.100428
0.177891
0.312745
0.454321
0.494246
0.38355
0.144499
-0.144485
-0.383532
-0.49425
-0.454355
-0.312768
-0.177887
-0.100422
-0.0564086
-0.0289341
-0.00893087
0.0109146
0.03478
0.0653353
0.108866
0.173207
0.260689
0.336217
0.341668
0.254317
0.0938049
-0.0937651
-0.254343
-0.341745
-0.336272
-0.26069
-0.173187
-0.108854
-0.065332
-0.0347773
-0.0109125
0.01174
0.0368067
0.0667884
0.105149
0.154158
0.209404
0.247521
0.237682
0.170902
0.0619522
-0.0620166
-0.170963
-0.237716
-0.247507
-0.209365
-0.154132
-0.105143
-0.0667896
-0.0368062
-0.0117381
0.011569
0.0357352
0.0628965
0.0944609
0.129996
0.163998
0.181475
0.166407
0.116315
0.0415918
-0.0416558
-0.11634
-0.166387
-0.181438
-0.163978
-0.130003
-0.0944787
-0.0629095
-0.0357382
-0.0115672
0.0106779
0.0325608
0.0558445
0.0806895
0.105664
0.126065
0.132591
0.117177
0.0800748
0.0283553
-0.0283278
-0.0800394
-0.117151
-0.132601
-0.126108
-0.105713
-0.0807198
-0.055854
-0.0325579
-0.0106739
0.00935417
0.0282269
0.0474001
0.0663983
0.0836254
0.0955635
0.0966033
0.082885
0.0556113
0.0195255
-0.0195128
-0.0556062
-0.0828996
-0.0966389
-0.0956007
-0.083643
-0.0663955
-0.0473903
-0.0282193
-0.00935194
0.00784896
0.0234849
0.0387743
0.0530008
0.0647587
0.0715884
0.0701786
0.0588256
0.0388913
0.0135518
-0.0135765
-0.0389179
-0.0588528
-0.0701983
-0.071591
-0.0647463
-0.0529874
-0.0387707
-0.0234901
-0.00785402
0.00635667
0.0188855
0.0307557
0.0412307
0.0492019
0.0530246
0.0507792
0.0418152
0.0273368
0.0094739
-0.00949698
-0.027357
-0.0418281
-0.0507811
-0.0530177
-0.0491963
-0.0412354
-0.0307709
-0.0189034
-0.00636581
0.0049976
0.0147599
0.0237709
0.0313767
0.0367552
0.038842
0.0365458
0.0297
0.0192591
0.00665234
-0.00665909
-0.0192644
-0.0297028
-0.0365473
-0.0388465
-0.0367675
-0.0313959
-0.0237919
-0.0147766
-0.00500432
0.0038277
0.011251
0.0179604
0.023419
0.0270382
0.0281436
0.0261288
0.0210289
0.0135566
0.00467111
-0.00467362
-0.0135599
-0.0210342
-0.0261382
-0.0281583
-0.0270565
-0.0234363
-0.0179726
-0.0112574
-0.0038293
0.00286108
0.00837952
0.0132865
0.0171631
0.0195958
0.0201623
0.0185328
0.0148102
0.00950724
0.00326781
-0.00327631
-0.00951648
-0.0148213
-0.0185465
-0.0201774
-0.0196087
-0.0171703
-0.0132875
-0.00837709
-0.0028592
0.00208831
0.00610049
0.00962484
0.012347
0.0139804
0.0142616
0.0130143
0.0103485
0.0066238
0.0022717
-0.00228509
-0.0066369
-0.0103613
-0.0130264
-0.0142714
-0.0139855
-0.0123465
-0.00962029
-0.00609515
-0.00208577
0.00148754
0.00433764
0.00681903
0.00870369
0.0097958
0.00993135
0.0090173
0.00714704
0.00456664
0.00156391
-0.0015773
-0.00457919
-0.00715804
-0.00902583
-0.0099362
-0.00979627
-0.00870043
-0.00681395
-0.00433311
-0.00148572
0.00103092
0.00300213
0.00470709
0.00598598
0.0067077
0.00677096
0.00612721
0.00484689
0.00309422
0.00105854
-0.00107075
-0.00310571
-0.0048568
-0.00613441
-0.00677448
-0.00670735
-0.0059826
-0.00470238
-0.00299804
-0.00102927
0.000688872
0.00200392
0.00313546
0.003976
0.00444071
0.00446863
0.00403467
0.00318752
0.00203321
0.000693186
-0.000708621
-0.0020473
-0.00319922
-0.00404314
-0.00447332
-0.00444127
-0.0039727
-0.00312986
-0.00199828
-0.000685938
0.000433658
0.0012611
0.00197124
0.00249511
0.00277995
0.00279091
0.00251585
0.00198584
0.00126598
0.000430401
-0.000443615
-0.00127712
-0.00199393
-0.00252079
-0.00279304
-0.00277969
-0.00249314
-0.00196912
-0.00125973
-0.000432856
0.000240063
0.000698777
0.00109348
0.00138362
0.00153864
0.00154137
0.00138803
0.00109617
0.000700642
0.000241254
-0.000239786
-0.000698595
-0.00109292
-0.00138383
-0.00153746
-0.00153658
-0.00138502
-0.00109976
-0.00070648
-0.000244729
0.000315794
0.000940727
0.00154546
0.00211598
0.00264093
0.00302187
0.00273481
0.00154902
0.000320631
-6.86645e-05
7.39515e-05
-0.000315768
-0.00154432
-0.00273041
-0.00301858
-0.00263967
-0.00211765
-0.00155068
-0.000946363
-0.000319287
0.00226654
0.00744526
0.0151039
0.0296818
0.0659984
0.186959
0.351182
0.427064
0.355249
0.139072
-0.139069
-0.355266
-0.427077
-0.351179
-0.186945
-0.0659845
-0.0296797
-0.0151078
-0.00744808
-0.00226762
0.00584632
0.0192328
0.0388516
0.0742842
0.151525
0.353602
0.6098
0.718366
0.58628
0.227111
-0.227124
-0.586269
-0.718336
-0.60979
-0.353606
-0.151521
-0.0742874
-0.0388642
-0.019247
-0.0058546
0.00892382
0.0289231
0.0564028
0.100427
0.177891
0.312747
0.454322
0.494245
0.383549
0.144499
-0.144484
-0.383529
-0.494247
-0.454353
-0.312769
-0.177889
-0.100424
-0.0564096
-0.0289337
-0.00893032
0.0109139
0.0347785
0.0653335
0.108864
0.173204
0.260686
0.336214
0.341665
0.254316
0.0938063
-0.0937603
-0.254336
-0.341739
-0.336269
-0.260691
-0.17319
-0.108857
-0.0653334
-0.0347773
-0.0109122
0.0117396
0.0368062
0.0667882
0.105149
0.154156
0.209399
0.247514
0.237675
0.170898
0.0619541
-0.0620091
-0.170954
-0.237709
-0.247504
-0.209365
-0.154133
-0.105144
-0.0667906
-0.0368065
-0.0117381
0.0115688
0.0357348
0.0628971
0.0944636
0.130001
0.164004
0.18148
0.166407
0.116312
0.0415865
-0.0416608
-0.116344
-0.166391
-0.18144
-0.163978
-0.130003
-0.0944787
-0.06291
-0.0357387
-0.0115673
0.0106778
0.0325601
0.0558429
0.0806885
0.105666
0.126072
0.132603
0.117187
0.0800784
0.0283511
-0.0283376
-0.0800504
-0.11716
-0.132605
-0.126108
-0.105712
-0.0807192
-0.0558543
-0.0325584
-0.010674
0.00935479
0.0282274
0.0473985
0.0663935
0.083619
0.0955594
0.0966047
0.0828915
0.0556189
0.0195297
-0.0195133
-0.0556095
-0.0829026
-0.0966397
-0.0955999
-0.0836421
-0.0663953
-0.0473906
-0.0282197
-0.009352
0.0078501
0.0234873
0.038776
0.0529995
0.0647532
0.0715804
0.0701721
0.058824
0.0388945
0.0135568
-0.0135725
-0.0389158
-0.0588519
-0.0701978
-0.0715906
-0.0647461
-0.0529874
-0.0387708
-0.0234901
-0.00785392
0.00635744
0.0188878
0.0307589
0.0412333
0.049202
0.0530214
0.050774
0.0418108
0.0273352
0.0094747
-0.00949536
-0.0273559
-0.0418278
-0.0507812
-0.053018
-0.0491964
-0.0412352
-0.0307705
-0.018903
-0.00636554
0.00499757
0.0147604
0.0237724
0.0313791
0.0367576
0.0388428
0.0365446
0.0296974
0.0192566
0.00665067
-0.00666008
-0.0192652
-0.0297036
-0.0365479
-0.0388468
-0.0367672
-0.0313952
-0.023791
-0.0147758
-0.00500393
0.00382716
0.0112499
0.0179596
0.0234191
0.0270391
0.0281447
0.0261292
0.0210283
0.0135553
0.00466965
-0.00467488
-0.0135609
-0.0210348
-0.0261383
-0.0281579
-0.0270556
-0.023435
-0.0179713
-0.0112564
-0.00382886
0.00286051
0.00837813
0.0132847
0.0171615
0.0195947
0.0201619
0.0185327
0.0148099
0.00950671
0.00326719
-0.00327682
-0.00951674
-0.0148212
-0.018546
-0.0201764
-0.0196074
-0.017169
-0.0132863
-0.00837619
-0.00285881
0.00208799
0.00609959
0.00962346
0.0123453
0.0139787
0.0142602
0.0130133
0.0103478
0.00662326
0.00227136
-0.00228518
-0.00663671
-0.0103608
-0.0130256
-0.0142703
-0.0139843
-0.0123454
-0.00961928
-0.00609442
-0.00208546
0.00148745
0.00433734
0.00681844
0.00870273
0.0097945
0.00992993
0.009016
0.00714594
0.00456578
0.00156336
-0.00157748
-0.00457901
-0.00715755
-0.0090251
-0.00993531
-0.00979533
-0.00869951
-0.00681309
-0.00433243
-0.00148541
0.00103096
0.00300223
0.00470707
0.00598564
0.00670691
0.00676982
0.00612595
0.00484568
0.00309318
0.00105781
-0.00107109
-0.00310568
-0.00485647
-0.00613392
-0.00677394
-0.00670679
-0.00598199
-0.0047017
-0.00299741
-0.00102889
0.000689016
0.00200427
0.00313579
0.00397603
0.00444024
0.00446773
0.00403366
0.00318661
0.00203247
0.000692651
-0.000708935
-0.0020474
-0.00319915
-0.00404302
-0.00447317
-0.00444109
-0.00397247
-0.00312948
-0.00199778
-0.000685578
0.000433911
0.00126164
0.00197179
0.00249546
0.00277996
0.00279062
0.00251542
0.00198538
0.00126542
0.000429733
-0.000444341
-0.00127788
-0.00199468
-0.00252143
-0.00279339