/*--------------------------------*- C++ -*----------------------------------*\
  =========                 |
  \\      /  F ield         | OpenFOAM: The Open Source CFD Toolbox
   \\    /   O peration     | Website:  https://openfoam.org
    \\  /    A nd           | Version:  7
     \\/     M anipulation  |
\*---------------------------------------------------------------------------*/
FoamFile
{
    version     2.0;
    format      ascii;
    class       volVectorField;
    location    "0";
    object      vorticity;
}
// * * * * * * * * * * * * * * * * * * * * * * * * * * * * * * * * * * * * * //

dimensions      [0 0 -1 0 0 0 0];

internalField   nonuniform List<vector> 
4000
(
(0 1.41708e-16 -2.89152)
(0 -1.02747e-16 -2.89152)
(0 1.94806e-17 -2.89152)
(0 2.07529e-16 -2.89152)
(0 1.05042e-16 -2.89153)
(0 -7.83648e-17 -2.89426)
(0 6.50755e-16 -2.90406)
(0 -4.31791e-18 -2.92034)
(0 -4.1595e-16 -2.93706)
(0 -4.16334e-17 -2.94762)
(0 -5.41024e-17 -2.94762)
(0 -1.66789e-17 -2.93706)
(0 4.5436e-17 -2.92034)
(0 -4.62156e-18 -2.90406)
(0 4.52237e-16 -2.89426)
(0 -2.94104e-17 -2.89153)
(0 6.84218e-16 -2.89152)
(0 3.73941e-16 -2.89152)
(0 -2.94106e-17 -2.89152)
(0 -3.22757e-16 -2.89152)
(0 -3.36276e-16 -1.08888e-17)
(0 5.50946e-18 1.06968e-16)
(0 -5.34191e-17 2.9554e-16)
(0 8.80094e-17 -2.46603e-16)
(0 -6.5205e-17 5.78403e-16)
(0 -2.98277e-17 -4.83093e-16)
(0 -1.12997e-16 6.06465e-17)
(0 -8.95954e-17 -1.78531e-16)
(0 -5.36623e-17 1.09449e-16)
(0 -7.7702e-17 -6.36257e-16)
(0 -8.97248e-17 -1.10676e-17)
(0 -3.54386e-16 1.09449e-16)
(0 -5.66187e-18 -1.78531e-16)
(0 3.62763e-16 1.55799e-16)
(0 5.58936e-18 -4.59481e-16)
(0 9.97967e-17 -1.08886e-17)
(0 -4.16334e-17 1.77682e-16)
(0 -2.53776e-16 1.77682e-16)
(0 2.64795e-16 -1.52317e-16)
(0 4.18009e-16 7.66968e-16)
(0 -3.03012e-16 -1.69595e-16)
(0 7.20095e-17 3.30433e-16)
(0 -7.57262e-17 1.25876e-16)
(0 -4.16334e-17 -2.83238e-16)
(0 -1.89046e-17 3.75895e-16)
(0 1.40498e-16 -1.92606e-16)
(0 2.13578e-16 -1.70872e-16)
(0 1.43304e-16 -5.41985e-16)
(0 2.35731e-16 -8.00376e-17)
(0 5.83535e-16 2.21184e-16)
(0 -6.48187e-17 -1.26596e-16)
(0 -1.11214e-16 -8.00376e-17)
(0 2.7718e-17 -1.95229e-16)
(0 -9.89666e-17 -4.00205e-16)
(0 -1.44082e-16 5.13154e-16)
(0 1.51887e-17 3.49623e-17)
(0 3.82377e-18 1.71333e-16)
(0 -3.93926e-16 1.71333e-16)
(0 -1.09819e-16 -7.86812e-17)
(0 2.37126e-16 1.71333e-16)
(0 3.60101e-16 -1.01163e-17)
(0 7.10756e-16 -4.92266e-16)
(0 -3.37498e-16 -2.51191e-16)
(0 -8.75949e-18 -2.95023e-16)
(0 8.98635e-17 1.18001e-17)
(0 1.33981e-16 -4.27182e-16)
(0 7.99671e-17 -3.20831e-17)
(0 2.59203e-16 -9.9327e-18)
(0 8.13463e-17 3.47671e-16)
(0 2.54338e-17 -9.97077e-17)
(0 4.50192e-16 -7.7352e-17)
(0 -3.09953e-16 1.24072e-16)
(0 -9.73438e-17 -3.44196e-16)
(0 2.67895e-16 5.20646e-16)
(0 -1.96815e-17 3.38065e-17)
(0 1.22738e-16 1.18001e-17)
(0 -7.45072e-17 -7.5864e-17)
(0 4.40517e-16 3.62454e-16)
(0 8.98621e-17 -1.41612e-16)
(0 3.74769e-16 4.72034e-16)
(0 9.57271e-17 -2.63339e-16)
(0 -7.33319e-17 2.6497e-16)
(0 3.81014e-16 -3.05604e-16)
(0 -4.16334e-17 -2.21074e-16)
(0 -1.26164e-16 5.39697e-16)
(0 7.39222e-16 3.07762e-16)
(0 -2.54779e-16 1.16926e-17)
(0 7.97597e-17 -9.55111e-17)
(0 1.22574e-17 -7.42647e-16)
(0 -4.1886e-16 3.34979e-16)
(0 3.37645e-16 1.16415e-17)
(0 -2.89531e-16 -2.03739e-16)
(0 4.52432e-16 -9.55111e-17)
(0 8.62542e-17 1.16926e-17)
(0 -6.27997e-17 3.07762e-16)
(0 3.70452e-16 -5.38065e-16)
(0 -2.63523e-16 -1.57677e-16)
(0 -3.28068e-17 -1.57677e-16)
(0 8.51609e-17 -6.85987e-16)
(0 -5.21996e-17 -5.20154e-17)
(0 6.02512e-17 3.13557e-17)
(0 6.02512e-17 3.13557e-17)
(0 -4.18606e-16 -1.52037e-16)
(0 -9.25756e-17 3.9814e-16)
(0 -3.06536e-16 -4.78072e-16)
(0 8.08211e-17 -4.17564e-16)
(0 -4.01231e-16 -2.55864e-16)
(0 3.82856e-16 1.56401e-16)
(0 -3.53356e-16 1.153e-16)
(0 9.34665e-17 -2.79757e-16)
(0 -1.03987e-16 -7.1911e-17)
(0 -9.35871e-17 1.153e-16)
(0 1.08597e-16 -3.81975e-16)
(0 3.59062e-16 -4.61349e-16)
(0 8.08211e-17 -4.17564e-16)
(0 -8.79131e-19 -9.09064e-17)
(0 2.44181e-16 9.24864e-17)
(0 6.02512e-17 1.53617e-16)
(0 1.94974e-17 9.24864e-17)
(0 -2.55591e-16 -3.55806e-16)
(0 -4.34604e-16 3.02388e-17)
(0 -9.06483e-18 -1.85895e-16)
(0 -3.26537e-16 1.4813e-16)
(0 3.54433e-16 -3.43083e-16)
(0 2.03975e-16 -2.87068e-17)
(0 7.644e-17 1.68065e-16)
(0 -1.01063e-16 7.02838e-17)
(0 7.8128e-17 -1.48653e-16)
(0 -7.1685e-17 -4.91264e-17)
(0 4.1931e-16 1.91197e-16)
(0 1.98859e-16 -3.09828e-16)
(0 -4.16334e-17 1.51218e-16)
(0 -5.16135e-17 1.5075e-16)
(0 2.35704e-16 5.85338e-16)
(0 -6.13123e-17 6.96707e-17)
(0 1.05732e-16 6.95367e-17)
(0 4.29931e-16 -9.05821e-18)
(0 7.57227e-16 2.07075e-16)
(0 -5.81861e-17 4.23209e-16)
(0 3.69607e-17 -9.05821e-18)
(0 -1.32141e-17 3.13355e-16)
(0 9.099e-17 -6.90794e-16)
(0 1.52052e-17 8.60005e-17)
(0 3.6571e-16 4.81081e-17)
(0 -7.95261e-17 3.70197e-16)
(0 -3.26256e-16 -1.79493e-16)
(0 3.2122e-16 1.82336e-16)
(0 4.49614e-16 -8.55829e-17)
(0 -3.12031e-16 2.61659e-16)
(0 1.03297e-16 2.97674e-17)
(0 -4.16334e-17 2.23008e-16)
(0 2.59659e-17 2.61659e-16)
(0 4.10516e-16 4.14668e-16)
(0 2.83025e-16 -3.90591e-16)
(0 5.7096e-16 1.0513e-16)
(0 -3.82668e-16 2.75465e-16)
(0 2.04667e-16 4.81081e-17)
(0 -2.26872e-17 8.60005e-17)
(0 -2.59515e-16 4.81081e-17)
(0 2.04667e-16 3.51247e-16)
(0 3.14613e-16 6.46617e-17)
(0 2.23083e-17 -2.8245e-16)
(0 3.51151e-16 9.85456e-18)
(0 -1.42298e-17 -2.66835e-17)
(0 2.14136e-16 -1.54568e-16)
(0 6.07197e-16 -3.01142e-16)
(0 5.04209e-17 2.86238e-16)
(0 8.81912e-17 -4.5415e-17)
(0 2.93519e-16 -8.2909e-17)
(0 -2.00012e-16 -6.44588e-17)
(0 -1.06848e-16 4.0136e-16)
(0 8.87037e-17 -3.62203e-16)
(0 -2.3087e-17 -2.68686e-17)
(0 -4.16334e-17 1.94184e-16)
(0 -5.99294e-17 -1.36477e-16)
(0 -2.06056e-16 -6.11299e-16)
(0 8.625e-17 3.38698e-16)
(0 2.23268e-16 -1.18029e-16)
(0 6.7981e-17 -1.54567e-16)
(0 4.05958e-16 -1.18029e-16)
(0 1.34528e-16 1.32819e-16)
(0 -9.44819e-17 2.209e-16)
(0 9.92959e-17 -4.33421e-17)
(0 -3.93957e-16 3.97062e-16)
(0 -3.9396e-16 -2.19506e-16)
(0 1.12914e-17 3.27089e-16)
(0 -2.3687e-16 -9.67861e-17)
(0 -3.00853e-16 9.84331e-18)
(0 4.04036e-16 -2.23533e-16)
(0 4.49041e-16 -8.01169e-17)
(0 1.91928e-16 -6.21506e-17)
(0 3.4429e-16 4.57158e-17)
(0 3.8814e-17 -2.58315e-16)
(0 4.71104e-17 4.35677e-16)
(0 -7.69165e-17 -1.31593e-16)
(0 1.3453e-16 -4.33423e-17)
(0 2.17231e-16 -1.49039e-16)
(0 -2.17795e-16 9.50635e-18)
(0 -2.17795e-16 -2.3712e-16)
(0 4.64475e-17 -1.84271e-16)
(0 3.39285e-16 -7.57627e-17)
(0 4.67966e-16 -1.77683e-16)
(0 -2.46467e-17 -1.43709e-16)
(0 3.4906e-16 -1.43709e-16)
(0 -5.86202e-17 -2.45631e-16)
(0 -1.09676e-16 -4.33073e-16)
(0 -4.69393e-16 4.02889e-16)
(0 1.99615e-16 -3.69628e-16)
(0 6.21925e-17 -7.84795e-18)
(0 1.14279e-16 -2.15838e-16)
(0 2.87515e-16 -1.98514e-16)
(0 -3.8772e-16 2.51717e-16)
(0 -1.27793e-16 2.50724e-16)
(0 7.81392e-17 4.35716e-17)
(0 -5.07652e-16 -9.28623e-17)
(0 -3.98356e-16 2.61576e-17)
(0 1.4522e-16 -2.48027e-17)
(0 -2.115e-16 -4.49469e-16)
(0 -3.20631e-16 4.33837e-16)
(0 2.20378e-16 -3.64536e-16)
(0 -2.0543e-16 1.39885e-16)
(0 -2.3819e-16 -3.35127e-16)
(0 2.23413e-16 9.07455e-17)
(0 7.30246e-17 -3.18747e-16)
(0 -1.72672e-16 3.69204e-16)
(0 -7.44376e-17 -4.03321e-17)
(0 2.38779e-16 -4.03364e-16)
(0 -4.23662e-16 -1.23757e-16)
(0 -5.83152e-17 2.25973e-16)
(0 5.85907e-17 1.25965e-16)
(0 -1.91969e-16 -1.24595e-16)
(0 -1.41724e-16 -1.91072e-16)
(0 -6.01071e-17 -1.23757e-16)
(0 3.04759e-16 -7.34663e-17)
(0 7.573e-18 5.80806e-17)
(0 -3.36471e-16 -6.29967e-16)
(0 7.30246e-17 5.00238e-16)
(0 5.36742e-17 -1.7133e-16)
(0 -3.20088e-16 1.23505e-16)
(0 2.36822e-16 9.07455e-17)
(0 -1.52195e-16 4.01238e-17)
(0 -2.58389e-17 -7.25973e-18)
(0 -2.62756e-16 2.43293e-17)
(0 4.16407e-16 -3.88487e-17)
(0 -7.32226e-17 2.43296e-17)
(0 -7.32643e-17 1.8253e-16)
(0 -1.27167e-17 4.04802e-17)
(0 1.66498e-16 1.20852e-16)
(0 -5.56244e-16 -2.00285e-16)
(0 -3.95978e-16 -5.57103e-17)
(0 8.72194e-17 -5.57103e-17)
(0 4.40814e-16 -4.41509e-16)
(0 -4.09867e-16 2.80953e-16)
(0 -4.39168e-16 -2.93449e-16)
(0 3.21127e-16 1.8253e-16)
(0 1.95286e-16 -5.46436e-17)
(0 -8.90169e-17 2.45452e-16)
(0 2.42668e-16 2.43293e-17)
(0 -1.00443e-17 2.45452e-16)
(0 -4.21678e-17 2.45452e-16)
(0 7.01298e-16 2.82379e-16)
(0 -4.2239e-16 -1.44069e-16)
(0 3.20542e-16 9.96154e-17)
(0 1.86821e-16 6.91549e-17)
(0 9.544e-17 2.5192e-16)
(0 8.03656e-17 5.40051e-17)
(0 3.05311e-16 -2.52238e-16)
(0 -1.65088e-16 -1.7673e-16)
(0 6.68868e-17 -1.1557e-16)
(0 1.29203e-16 -1.93491e-16)
(0 -1.81409e-16 -1.7796e-16)
(0 2.74306e-16 1.16973e-16)
(0 -1.49656e-16 -1.61299e-16)
(0 -1.0975e-17 7.59489e-16)
(0 4.8831e-16 -9.84936e-17)
(0 9.544e-17 -5.26875e-17)
(0 -1.17785e-16 -4.33444e-16)
(0 4.05744e-18 2.34641e-17)
(0 2.32511e-16 -6.99643e-18)
(0 -7.20939e-17 -3.57293e-16)
(0 1.19915e-16 -2.14288e-17)
(0 3.54895e-16 -4.32643e-16)
(0 -1.7381e-16 4.33845e-16)
(0 4.52174e-16 3.73162e-17)
(0 1.78662e-16 -5.08015e-17)
(0 -8.57469e-17 3.16757e-16)
(0 -2.04186e-16 1.70604e-16)
(0 9.2235e-17 -9.59854e-17)
(0 -7.15232e-17 6.79221e-17)
(0 -1.16509e-16 -2.01544e-16)
(0 1.38069e-16 -4.26172e-16)
(0 4.80361e-17 2.92096e-16)
(0 2.11229e-16 -3.19099e-16)
(0 6.18091e-17 9.67164e-17)
(0 -5.63379e-17 2.26671e-17)
(0 -1.15065e-16 -2.12351e-16)
(0 4.64841e-17 -3.00467e-16)
(0 3.54895e-16 -1.38919e-16)
(0 1.19915e-16 6.66886e-17)
(0 2.37405e-16 6.66886e-17)
(0 1.14145e-16 6.43107e-17)
(0 -6.99568e-17 -2.18923e-16)
(0 -5.57951e-17 -3.03893e-16)
(0 2.98247e-16 2.18256e-17)
(0 9.99846e-17 -9.14685e-17)
(0 1.71047e-16 -2.90072e-16)
(0 2.14787e-16 1.92947e-16)
(0 1.73416e-16 -1.64211e-16)
(0 -5.60403e-17 -2.09711e-17)
(0 4.93028e-16 1.23339e-16)
(0 -2.0047e-16 -9.32568e-17)
(0 1.58743e-18 -2.09711e-17)
(0 1.1607e-16 -1.64211e-16)
(0 -3.31596e-16 -1.63192e-16)
(0 -8.41694e-17 6.4395e-17)
(0 -1.26604e-16 5.45812e-16)
(0 -8.41185e-17 6.43107e-17)
(0 2.48665e-16 -9.1468e-17)
(0 5.74985e-17 4.18353e-16)
(0 5.17737e-16 -9.1468e-17)
(0 1.35894e-16 2.80513e-16)
(0 4.03024e-17 1.5761e-16)
(0 4.22669e-16 2.53201e-16)
(0 1.4955e-16 -3.35737e-17)
(0 1.35895e-16 -1.42822e-16)
(0 -1.23664e-16 -4.72789e-17)
(0 3.70347e-16 -4.74613e-17)
(0 -1.78418e-19 -3.51743e-16)
(0 5.69188e-16 2.43654e-16)
(0 -1.39097e-16 -7.59965e-17)
(0 3.19235e-16 -6.20731e-17)
(0 3.1303e-20 2.43654e-16)
(0 9.65498e-17 -3.51743e-16)
(0 1.23159e-16 2.12022e-17)
(0 -1.23664e-16 -2.66026e-16)
(0 3.46279e-16 -2.79383e-16)
(0 1.96064e-16 3.47061e-17)
(0 1.35894e-16 -1.15509e-16)
(0 -1.09913e-16 3.47061e-17)
(0 -5.33248e-16 -2.65725e-16)
(0 3.9749e-16 1.65154e-16)
(0 5.05449e-17 4.66391e-17)
(0 3.73766e-17 1.38817e-16)
(0 3.1848e-16 -1.37717e-16)
(0 -3.70843e-16 3.3471e-17)
(0 -2.08469e-18 -1.24683e-16)
(0 1.43701e-16 -3.25205e-17)
(0 6.4915e-17 -2.19166e-16)
(0 4.25804e-16 3.40516e-17)
(0 -3.77274e-16 8.78305e-17)
(0 3.74561e-16 -1.13554e-16)
(0 7.60507e-16 3.40516e-17)
(0 7.44823e-16 -2.19166e-16)
(0 -1.91882e-18 -3.25205e-17)
(0 -3.31657e-16 5.34461e-16)
(0 -8.11386e-17 -3.2371e-17)
(0 -1.20643e-16 1.25649e-16)
(0 -2.3459e-16 -8.50442e-17)
(0 6.37133e-17 1.25649e-16)
(0 2.87575e-16 9.93124e-17)
(0 -4.60673e-16 -1.58193e-16)
(0 -1.43219e-16 -1.58193e-16)
(0 -5.43315e-17 7.03742e-17)
(0 4.95784e-16 4.49779e-17)
(0 1.36142e-16 -1.96288e-16)
(0 -4.73827e-16 -1.45647e-16)
(0 -1.30963e-16 2.11111e-16)
(0 3.30631e-16 7.11584e-17)
(0 3.5802e-17 2.13501e-16)
(0 -3.52329e-16 4.58561e-17)
(0 -3.36795e-16 -2.77785e-16)
(0 3.97167e-16 3.4256e-16)
(0 9.71338e-18 7.11584e-17)
(0 4.76964e-17 -4.41171e-17)
(0 7.27709e-17 1.08585e-16)
(0 -4.16334e-17 6.88343e-18)
(0 -4.35277e-16 2.73545e-16)
(0 -1.05124e-16 -2.21684e-16)
(0 6.6086e-16 -4.39093e-17)
(0 3.13915e-16 9.57706e-17)
(0 1.1755e-16 1.44562)
(0 3.18358e-17 1.44562)
(0 4.64494e-16 1.44562)
(0 5.09385e-16 1.44562)
(0 3.17556e-16 1.44562)
(0 4.76912e-16 1.44707)
(0 9.36852e-17 1.45233)
(0 7.85501e-18 1.46064)
(0 -1.53602e-16 1.46877)
(0 -3.16257e-16 1.47372)
(0 3.32639e-17 1.47372)
(0 2.30666e-16 1.46877)
(0 5.73434e-17 1.46064)
(0 3.52021e-16 1.45233)
(0 3.01567e-16 1.44707)
(0 1.05306e-16 1.44562)
(0 -5.38782e-17 1.44562)
(0 4.60406e-16 1.44562)
(0 8.19595e-16 1.44562)
(0 8.08152e-17 1.44562)
(0 -1.41708e-16 -2.89152)
(0 1.02747e-16 -2.89152)
(0 -1.94806e-17 -2.89152)
(0 1.39416e-16 -2.89152)
(0 -1.05042e-16 -2.89153)
(0 7.83648e-17 -2.89426)
(0 9.09824e-17 -2.90406)
(0 4.31791e-18 -2.92034)
(0 1.66789e-17 -2.93706)
(0 4.16334e-17 -2.94762)
(0 5.41024e-17 -2.94762)
(0 1.66789e-17 -2.93706)
(0 -4.5436e-17 -2.92034)
(0 4.62156e-18 -2.90406)
(0 -1.05293e-16 -2.89426)
(0 2.94104e-17 -2.89153)
(0 5.38561e-17 -2.89152)
(0 1.71878e-17 -2.89152)
(0 2.94106e-17 -2.89152)
(0 -6.83717e-17 -2.89152)
(0 -4.08666e-17 -6.00174e-16)
(0 -5.50946e-18 -4.82317e-16)
(0 5.34191e-17 8.33968e-17)
(0 -8.80094e-17 -2.46603e-16)
(0 6.5205e-17 5.78403e-16)
(0 2.98277e-17 -4.83093e-16)
(0 1.12997e-16 6.06465e-17)
(0 8.95954e-17 -1.78531e-16)
(0 5.36623e-17 -2.75477e-16)
(0 7.7702e-17 -2.51525e-16)
(0 8.97248e-17 -3.95799e-16)
(0 -3.05403e-17 -2.75477e-16)
(0 5.66187e-18 -1.78531e-16)
(0 1.78453e-17 1.55799e-16)
(0 -5.58936e-18 -4.59481e-16)
(0 -9.97967e-17 -1.08886e-17)
(0 4.16334e-17 -1.9946e-16)
(0 -1.23367e-16 -7.88745e-16)
(0 1.12348e-16 -1.52317e-16)
(0 -4.08666e-17 -1.9946e-16)
(0 -6.06452e-17 -1.69595e-16)
(0 -7.20095e-17 3.30433e-16)
(0 7.57262e-17 -2.37781e-16)
(0 4.16334e-17 -2.83238e-16)
(0 1.89046e-17 3.75895e-16)
(0 -1.40498e-16 -1.92606e-16)
(0 1.33367e-16 -1.70872e-16)
(0 -1.43304e-16 -5.41985e-16)
(0 1.11214e-16 -8.00376e-17)
(0 1.34375e-16 -3.58449e-16)
(0 6.48187e-17 4.53037e-16)
(0 1.11214e-16 -8.00376e-17)
(0 -2.7718e-17 -1.95229e-16)
(0 9.89666e-17 -4.00205e-16)
(0 -1.40498e-16 5.13154e-16)
(0 -1.51887e-17 -3.28699e-16)
(0 -3.82377e-18 1.71333e-16)
(0 3.02691e-17 1.71333e-16)
(0 1.09819e-16 -7.86812e-17)
(0 1.09819e-16 1.71333e-16)
(0 -1.31564e-17 -1.01163e-17)
(0 -1.31564e-17 -8.42921e-16)
(0 -1.31564e-17 -2.51191e-16)
(0 8.75949e-18 -6.45678e-16)
(0 -8.98635e-17 1.18001e-17)
(0 -1.33981e-16 -4.27182e-16)
(0 -7.99671e-17 -3.20831e-17)
(0 9.73438e-17 -9.9327e-18)
(0 -8.13463e-17 3.47671e-16)
(0 -2.54338e-17 -9.97077e-17)
(0 -9.25009e-17 -7.7352e-17)
(0 -4.78064e-17 1.24072e-16)
(0 9.73438e-17 -7.00743e-16)
(0 8.58517e-17 5.20646e-16)
(0 1.96815e-17 3.38065e-17)
(0 -1.22738e-16 5.59704e-16)
(0 7.45072e-17 -7.5864e-17)
(0 -8.98621e-17 3.62454e-16)
(0 -8.98621e-17 -1.41612e-16)
(0 -2.41144e-17 4.72034e-16)
(0 -9.57271e-17 7.47789e-17)
(0 7.33319e-17 1.1314e-15)
(0 -4.28962e-17 -3.05604e-16)
(0 4.16334e-17 -2.21074e-16)
(0 1.26164e-16 5.39697e-16)
(0 -5.36154e-17 3.07762e-16)
(0 -8.62542e-17 1.16926e-17)
(0 -7.65127e-17 -9.55111e-17)
(0 -1.22574e-17 -3.97746e-16)
(0 7.39671e-17 3.34979e-16)
(0 9.29962e-18 1.16415e-17)
(0 -5.53701e-17 1.41162e-16)
(0 -1.08734e-16 -9.55111e-17)
(0 -8.62542e-17 1.16926e-17)
(0 6.27997e-17 3.07762e-16)
(0 -3.23307e-17 -5.38065e-16)
(0 -7.45947e-17 1.80441e-16)
(0 4.16334e-17 1.80441e-16)
(0 -8.51609e-17 -3.47869e-16)
(0 5.21996e-17 -5.20154e-17)
(0 -6.02512e-17 3.13557e-17)
(0 -6.02512e-17 3.13557e-17)
(0 9.25756e-17 -1.52037e-16)
(0 9.25756e-17 7.21095e-17)
(0 -1.9498e-17 -4.78072e-16)
(0 -8.08211e-17 -4.17564e-16)
(0 7.24561e-17 7.29113e-17)
(0 -5.15472e-17 1.56401e-16)
(0 2.08519e-17 4.47804e-16)
(0 -9.34665e-17 -6.12311e-16)
(0 1.03987e-16 2.60643e-16)
(0 9.35871e-17 4.47804e-16)
(0 -9.29608e-17 -3.81975e-16)
(0 -3.02863e-17 -1.32573e-16)
(0 -8.08211e-17 -9.10192e-17)
(0 8.79131e-19 2.35127e-16)
(0 1.02764e-16 9.24864e-17)
(0 -6.02512e-17 4.79648e-16)
(0 -1.94974e-17 9.24864e-17)
(0 -7.04397e-17 -2.9775e-17)
(0 1.20227e-16 3.02388e-17)
(0 4.16334e-17 -1.85895e-16)
(0 1.21606e-17 1.4813e-16)
(0 -7.48791e-18 1.4813e-16)
(0 1.10404e-16 -3.43086e-16)
(0 -7.644e-17 1.68065e-16)
(0 1.01063e-16 7.02838e-17)
(0 -7.8128e-17 1.70711e-16)
(0 7.1685e-17 -5.49986e-16)
(0 -9.86536e-17 1.91197e-16)
(0 1.21797e-16 -8.10853e-16)
(0 4.16334e-17 -2.9092e-17)
(0 5.16135e-17 1.5075e-16)
(0 8.12529e-17 9.00936e-17)
(0 6.13123e-17 -4.22302e-16)
(0 -1.05732e-16 6.95367e-17)
(0 -1.15555e-16 -9.05821e-18)
(0 -9.59062e-17 -2.84137e-16)
(0 9.07546e-17 7.37585e-16)
(0 -3.69607e-17 -5.00271e-16)
(0 1.32141e-17 3.13355e-16)
(0 -9.099e-17 -6.90794e-16)
(0 -1.52052e-17 8.60005e-17)
(0 -6.25707e-17 3.51247e-16)
(0 7.95261e-17 8.43857e-16)
(0 2.26585e-17 -1.79493e-16)
(0 -1.56593e-17 1.82336e-16)
(0 -1.0267e-16 2.22264e-16)
(0 3.00519e-18 2.61659e-16)
(0 -1.03297e-16 2.97674e-17)
(0 4.16334e-17 -8.61769e-17)
(0 -2.59659e-17 -2.21193e-16)
(0 -1.0267e-16 1.06821e-16)
(0 2.25358e-17 -3.90591e-16)
(0 7.95831e-17 -1.98468e-16)
(0 7.95261e-17 5.78607e-16)
(0 9.8472e-17 3.51247e-16)
(0 2.26872e-17 8.60005e-17)
(0 -4.36245e-17 -1.22408e-16)
(0 9.8472e-17 3.51247e-16)
(0 -2.23083e-17 6.46617e-17)
(0 -2.23083e-17 -2.8245e-16)
(0 -5.88464e-17 3.02159e-16)
(0 1.42298e-17 -7.75715e-16)
(0 7.81718e-17 -1.54568e-16)
(0 3.24853e-17 -3.01142e-16)
(0 -5.04209e-17 2.86238e-16)
(0 -8.81912e-17 2.51327e-16)
(0 4.39421e-18 -3.80822e-16)
(0 -9.81124e-17 -6.44588e-17)
(0 1.06848e-16 4.0136e-16)
(0 -8.87037e-17 -3.62203e-16)
(0 2.3087e-17 1.40049e-16)
(0 4.16334e-17 4.88758e-16)
(0 5.99294e-17 1.5626e-16)
(0 -8.62512e-17 -6.11299e-16)
(0 -8.625e-17 -4.10334e-16)
(0 6.90369e-17 -4.10334e-16)
(0 -6.7981e-17 -3.18988e-16)
(0 -1.13654e-16 -4.10334e-16)
(0 1.4733e-16 1.32819e-16)
(0 9.44819e-17 2.209e-16)
(0 -9.92959e-17 -4.83746e-16)
(0 1.12098e-16 8.37466e-16)
(0 1.12099e-16 -2.19506e-16)
(0 -1.12914e-17 3.27089e-16)
(0 -4.71104e-17 1.87194e-16)
(0 1.48176e-17 -4.37087e-16)
(0 -5.70913e-17 2.25215e-16)
(0 -1.02097e-16 -8.01169e-17)
(0 9.55321e-17 -6.21506e-17)
(0 -5.70913e-17 -2.41483e-16)
(0 -3.8814e-17 1.88615e-16)
(0 -4.71104e-17 -8.04234e-18)
(0 7.69165e-17 -1.31593e-16)
(0 -1.3453e-16 2.38519e-16)
(0 1.29714e-16 2.91365e-16)
(0 2.17795e-16 4.4991e-16)
(0 2.17795e-16 4.47387e-17)
(0 -4.64475e-17 -2.5726e-17)
(0 7.66004e-18 -7.57627e-17)
(0 -1.9618e-16 -1.77683e-16)
(0 2.46467e-17 -1.43709e-16)
(0 -7.72733e-17 -1.43709e-16)
(0 5.86202e-17 2.61576e-17)
(0 1.09676e-16 -4.33073e-16)
(0 1.95627e-16 4.02889e-16)
(0 -1.99615e-16 -9.39159e-17)
(0 -6.21925e-17 -7.84795e-18)
(0 -1.14279e-16 6.13403e-17)
(0 -1.03375e-17 -4.75692e-16)
(0 1.10851e-16 4.07455e-16)
(0 1.27793e-16 2.50724e-16)
(0 1.95627e-16 -2.30194e-16)
(0 1.60707e-16 1.79307e-16)
(0 1.26567e-16 -3.98512e-16)
(0 -1.4522e-16 2.46984e-16)
(0 2.115e-16 -1.77683e-16)
(0 -2.63133e-17 9.1706e-18)
(0 1.26567e-16 3.31917e-16)
(0 -5.66449e-17 4.0196e-16)
(0 -2.38855e-17 -3.35127e-16)
(0 1.23532e-16 9.07455e-17)
(0 -7.30246e-17 -3.18747e-16)
(0 1.72672e-16 -4.02924e-17)
(0 -1.87996e-16 -4.03321e-17)
(0 2.51385e-17 -4.03364e-16)
(0 1.57903e-16 -2.73247e-16)
(0 5.83152e-17 2.25973e-16)
(0 -5.85907e-17 1.25965e-16)
(0 1.91969e-16 2.93005e-16)
(0 1.41724e-16 2.25973e-16)
(0 1.41293e-16 1.42002e-16)
(0 -4.08409e-17 3.38905e-16)
(0 -7.573e-18 5.80806e-17)
(0 7.43931e-17 -6.29967e-16)
(0 -7.30246e-17 9.07455e-17)
(0 -1.38543e-16 -3.18747e-16)
(0 -2.04062e-16 -1.38571e-16)
(0 2.52537e-17 -3.18747e-16)
(0 -1.00517e-16 -3.54739e-16)
(0 2.58389e-17 2.45452e-16)
(0 1.00443e-17 2.77041e-16)
(0 -1.63695e-16 -3.88487e-17)
(0 7.32226e-17 2.43296e-17)
(0 7.32643e-17 1.8253e-16)
(0 1.05239e-16 -2.13942e-16)
(0 8.96638e-17 -1.3531e-16)
(0 4.16334e-17 -2.00285e-16)
(0 1.38273e-16 -5.57103e-17)
(0 -8.72194e-17 -5.57103e-17)
(0 -1.83509e-16 -1.84204e-16)
(0 1.53704e-16 2.80953e-16)
(0 1.84746e-16 -2.93449e-16)
(0 2.58179e-17 1.8253e-16)
(0 -1.95286e-16 -5.46436e-17)
(0 -1.63695e-16 2.45452e-16)
(0 1.00443e-17 2.77041e-16)
(0 1.00443e-17 2.45452e-16)
(0 1.364e-16 2.45452e-16)
(0 -1.10669e-16 5.26063e-16)
(0 1.78706e-16 -5.24825e-16)
(0 2.64031e-17 -2.81141e-16)
(0 -1.86821e-16 6.91549e-17)
(0 -9.544e-17 2.5192e-16)
(0 -8.03656e-17 5.40051e-17)
(0 4.16334e-17 3.7626e-16)
(0 -8.18213e-17 -1.7673e-16)
(0 -6.68868e-17 -1.1557e-16)
(0 1.19286e-16 5.49986e-17)
(0 1.81409e-16 -1.7796e-16)
(0 7.26391e-17 -5.18645e-16)
(0 1.49656e-16 -1.61299e-16)
(0 1.0975e-17 7.59489e-16)
(0 -1.41365e-16 -9.84936e-17)
(0 1.48246e-16 -5.26875e-17)
(0 1.17785e-16 -1.8976e-16)
(0 -4.05744e-18 -3.57293e-16)
(0 1.11728e-17 2.36688e-16)
(0 7.20939e-17 -3.57293e-16)
(0 -1.19915e-16 2.13551e-16)
(0 -1.19915e-16 -4.32643e-16)
(0 1.7381e-16 4.33845e-16)
(0 1.29751e-16 -1.97664e-16)
(0 -1.78662e-16 -5.08015e-17)
(0 -1.49525e-16 3.16757e-16)
(0 -3.22541e-17 -1.98834e-16)
(0 -9.2235e-17 -3.33974e-16)
(0 7.15232e-17 6.79221e-17)
(0 1.16509e-16 -4.41147e-16)
(0 1.01534e-16 -4.26172e-16)
(0 -4.80361e-17 5.29771e-17)
(0 2.67591e-17 -3.19099e-16)
(0 -6.18091e-17 9.67164e-17)
(0 -1.78934e-16 2.26671e-17)
(0 -1.19916e-16 2.26302e-17)
(0 -4.64841e-17 -6.67623e-16)
(0 -1.19915e-16 9.60611e-17)
(0 -1.19915e-16 -3.00467e-16)
(0 -2.42535e-18 6.66886e-17)
(0 -1.14145e-16 -2.89732e-16)
(0 6.99568e-17 7.66393e-18)
(0 5.57951e-17 -7.73063e-17)
(0 -7.16602e-17 3.75868e-16)
(0 -9.99846e-17 -9.14685e-17)
(0 5.58121e-17 -6.32133e-17)
(0 1.31422e-17 4.20876e-16)
(0 -1.73416e-16 1.94205e-16)
(0 -1.74471e-16 -2.51482e-16)
(0 8.49525e-17 -1.07697e-16)
(0 -3.05652e-17 -9.32568e-17)
(0 -1.58743e-18 1.08691e-16)
(0 -1.1607e-16 -1.64211e-16)
(0 -1.53489e-17 6.47374e-17)
(0 -1.4269e-16 2.91254e-16)
(0 -9.99846e-17 1.91767e-16)
(0 8.41185e-17 -1.62276e-16)
(0 9.82802e-17 -9.1468e-17)
(0 1.69089e-16 1.91766e-16)
(0 5.57951e-17 1.35119e-16)
(0 -1.35894e-16 4.99009e-16)
(0 -4.03024e-17 -1.83789e-16)
(0 1.43215e-17 -8.81975e-17)
(0 -1.4955e-16 -3.35737e-17)
(0 -1.35895e-16 -1.42822e-16)
(0 1.23664e-16 -3.89072e-16)
(0 6.90987e-17 -2.67184e-16)
(0 1.78418e-19 -3.51743e-16)
(0 -3.1303e-20 3.68648e-16)
(0 -8.36774e-17 1.46778e-16)
(0 2.77099e-17 -6.20731e-17)
(0 -3.1303e-20 3.68648e-16)
(0 -9.65498e-17 -3.51743e-16)
(0 -1.23159e-16 2.12022e-17)
(0 1.23664e-16 -3.89072e-16)
(0 6.65247e-19 -2.79383e-16)
(0 1.50881e-16 3.47061e-17)
(0 -1.35894e-16 -1.15509e-16)
(0 1.09913e-16 3.47061e-17)
(0 9.62572e-17 -4.72296e-17)
(0 -5.05449e-17 3.75847e-16)
(0 -5.05449e-17 4.66391e-17)
(0 -3.73766e-17 -7.18758e-17)
(0 2.8465e-17 -1.37717e-16)
(0 -5.05455e-17 2.44165e-16)
(0 2.08469e-18 -3.3561e-16)
(0 -1.43701e-16 5.10245e-16)
(0 -6.4915e-17 -6.06941e-18)
(0 -7.88595e-17 3.68754e-16)
(0 -5.2346e-17 -1.26979e-16)
(0 5.5059e-17 -1.13554e-16)
(0 1.48572e-17 3.68754e-16)
(0 2.83148e-17 -6.06941e-18)
(0 1.91882e-18 1.7929e-16)
(0 -9.01956e-17 -6.03746e-18)
(0 8.11386e-17 1.78323e-16)
(0 1.20643e-16 -8.50442e-17)
(0 1.60148e-16 -8.50442e-17)
(0 -6.37133e-17 -8.50442e-17)
(0 1.33812e-16 -1.92025e-17)
(0 5.43315e-17 -1.58193e-16)
(0 1.43219e-16 -1.58193e-16)
(0 5.43315e-17 7.03742e-17)
(0 -1.48839e-16 2.48149e-16)
(0 -1.36142e-16 -3.10572e-16)
(0 6.70565e-17 1.72143e-16)
(0 1.30963e-16 -1.07924e-16)
(0 8.01434e-17 -4.43718e-17)
(0 -3.5802e-17 7.00688e-18)
(0 -6.19318e-17 2.52987e-16)
(0 -1.01492e-17 -7.06548e-17)
(0 1.58216e-17 3.4256e-16)
(0 -9.71338e-18 -4.43718e-17)
(0 -4.76964e-17 -3.63152e-16)
(0 -7.27709e-17 4.26375e-16)
(0 4.16334e-17 -3.10572e-16)
(0 2.89352e-17 7.03742e-17)
(0 1.05124e-16 -1.8513e-17)
(0 9.2426e-17 1.59261e-16)
(0 9.2426e-17 -1.8513e-17)
(0 -1.1755e-16 1.44562)
(0 -3.18358e-17 1.44562)
(0 -1.1755e-16 1.44562)
(0 -1.1755e-16 1.44562)
(0 2.93885e-17 1.44562)
(0 -1.29967e-16 1.44707)
(0 -9.36852e-17 1.45233)
(0 -7.85501e-18 1.46064)
(0 1.53602e-16 1.46877)
(0 -8.31954e-17 1.47372)
(0 -3.32639e-17 1.47372)
(0 1.16279e-16 1.46877)
(0 -5.73434e-17 1.46064)
(0 4.16334e-17 1.45233)
(0 9.0662e-17 1.44707)
(0 -1.05306e-16 1.44562)
(0 5.38782e-17 1.44562)
(0 -6.85703e-17 1.44562)
(0 -8.08152e-17 1.44562)
(0 -8.08152e-17 1.44562)
(0 -1.41708e-16 -2.89152)
(0 1.02747e-16 -2.89152)
(0 -1.94806e-17 -2.89152)
(0 1.39416e-16 -2.89152)
(0 -1.05042e-16 -2.89153)
(0 7.83648e-17 -2.89426)
(0 9.09824e-17 -2.90406)
(0 4.31791e-18 -2.92034)
(0 1.66789e-17 -2.93706)
(0 4.16334e-17 -2.94762)
(0 5.41024e-17 -2.94762)
(0 1.66789e-17 -2.93706)
(0 -4.5436e-17 -2.92034)
(0 4.62156e-18 -2.90406)
(0 -1.05293e-16 -2.89426)
(0 2.94104e-17 -2.89153)
(0 5.38561e-17 -2.89152)
(0 1.71878e-17 -2.89152)
(0 2.94106e-17 -2.89152)
(0 -6.83717e-17 -2.89152)
(0 -4.08666e-17 -2.23032e-16)
(0 -5.50946e-18 2.71968e-16)
(0 5.34191e-17 8.33968e-17)
(0 -8.80094e-17 -8.16031e-17)
(0 6.5205e-17 -2.23034e-16)
(0 2.98277e-17 2.72471e-16)
(0 1.12997e-16 6.06465e-17)
(0 8.95954e-17 -1.78531e-16)
(0 5.36623e-17 4.94375e-16)
(0 7.7702e-17 -2.51525e-16)
(0 8.97248e-17 3.73664e-16)
(0 -3.05403e-17 4.94375e-16)
(0 5.66187e-18 -1.78531e-16)
(0 1.78453e-17 -5.82937e-17)
(0 -5.58936e-18 -4.59481e-16)
(0 -9.97967e-17 -2.23034e-16)
(0 4.16334e-17 -3.44602e-17)
(0 -1.23367e-16 -6.23745e-16)
(0 1.12348e-16 -3.6446e-16)
(0 -4.08666e-17 -3.44602e-17)
(0 -6.06452e-17 -3.74153e-16)
(0 -7.20095e-17 1.25876e-16)
(0 7.57262e-17 4.89533e-16)
(0 4.16334e-17 -4.87795e-16)
(0 1.89046e-17 -1.92326e-16)
(0 -1.40498e-16 -3.32408e-17)
(0 1.33367e-16 1.96061e-16)
(0 -1.43304e-16 -1.72111e-16)
(0 1.11214e-16 8.23164e-17)
(0 1.34375e-16 1.25163e-17)
(0 6.48187e-17 -3.35263e-16)
(0 1.11214e-16 8.23164e-17)
(0 -2.7718e-17 -1.95229e-16)
(0 9.89666e-17 -2.39672e-16)
(0 -1.40498e-16 5.13154e-16)
(0 -1.51887e-17 -1.69597e-16)
(0 -3.82377e-18 3.30433e-16)
(0 3.02691e-17 3.30433e-16)
(0 1.09819e-16 -7.86812e-17)
(0 1.09819e-16 3.30433e-16)
(0 -1.31564e-17 6.91193e-16)
(0 -1.31564e-17 -1.41612e-16)
(0 -1.31564e-17 -9.778e-17)
(0 8.75949e-18 5.56315e-17)
(0 -8.98635e-17 7.13117e-16)
(0 -1.33981e-16 -6.24748e-16)
(0 -7.99671e-17 3.21664e-16)
(0 9.73438e-17 -2.1049e-16)
(0 -8.13463e-17 1.46432e-16)
(0 -2.54338e-17 5.67823e-17)
(0 -9.25009e-17 2.80339e-16)
(0 -4.78064e-17 2.80591e-16)
(0 9.73438e-17 1.23515e-17)
(0 8.58517e-17 -2.31066e-16)
(0 1.96815e-17 3.38065e-17)
(0 -1.22738e-16 1.65213e-16)
(0 7.45072e-17 -1.17166e-15)
(0 -8.98621e-17 -3.20322e-17)
(0 -8.98621e-17 2.09043e-16)
(0 -2.41144e-17 -6.23762e-16)
(0 -9.57271e-17 -4.53531e-16)
(0 7.33319e-17 7.47789e-17)
(0 -4.28962e-17 -4.95795e-16)
(0 4.16334e-17 -7.31478e-17)
(0 1.26164e-16 3.49504e-16)
(0 -5.36154e-17 1.17265e-16)
(0 -8.62542e-17 -1.80139e-16)
(0 -7.65127e-17 -2.88841e-16)
(0 -1.22574e-17 -3.97746e-16)
(0 7.39671e-17 1.40976e-16)
(0 9.29962e-18 -1.82361e-16)
(0 -5.53701e-17 -9.36654e-16)
(0 -1.08734e-16 -2.88841e-16)
(0 -8.62542e-17 -1.80139e-16)
(0 6.27997e-17 6.46424e-16)
(0 -3.23307e-17 -3.90137e-16)
(0 -7.45947e-17 5.18559e-16)
(0 4.16334e-17 -9.75066e-18)
(0 -8.51609e-17 -9.75066e-18)
(0 5.21996e-17 2.86103e-16)
(0 -6.02512e-17 3.13557e-17)
(0 -6.02512e-17 3.13557e-17)
(0 9.25756e-17 -9.39812e-18)
(0 9.25756e-17 2.14748e-16)
(0 -1.9498e-17 -9.875e-16)
(0 -8.08211e-17 2.35526e-16)
(0 7.24561e-17 -4.408e-16)
(0 -5.15472e-17 4.8771e-16)
(0 2.08519e-17 4.47804e-16)
(0 -9.34665e-17 5.27966e-17)
(0 1.03987e-16 7.35812e-17)
(0 9.35871e-17 4.47804e-16)
(0 -9.29608e-17 2.80642e-16)
(0 -3.02863e-17 1.12659e-17)
(0 -8.08211e-17 2.35526e-16)
(0 8.79131e-19 5.17334e-17)
(0 1.02764e-16 2.35125e-16)
(0 -6.02512e-17 -2.9775e-17)
(0 -1.94974e-17 2.35125e-16)
(0 -7.04397e-17 -5.39198e-16)
(0 1.20227e-16 6.58991e-16)
(0 4.16334e-17 -1.85895e-16)
(0 1.21606e-17 -2.87067e-17)
(0 -7.48791e-18 -2.87067e-17)
(0 1.10404e-16 2.85672e-16)
(0 -7.644e-17 -9.04488e-18)
(0 1.01063e-16 3.8724e-16)
(0 -7.8128e-17 -3.28295e-16)
(0 7.1685e-17 9.11144e-17)
(0 -9.86536e-17 3.31484e-16)
(0 1.21797e-16 -1.69541e-16)
(0 4.16334e-17 6.12009e-16)
(0 5.16135e-17 -5.27897e-16)
(0 8.12529e-17 -4.05151e-16)
(0 6.13123e-17 2.07423e-16)
(0 -1.05732e-16 -1.07302e-16)
(0 -1.15555e-16 1.28481e-16)
(0 -9.59062e-17 3.02388e-17)
(0 9.07546e-17 2.46372e-16)
(0 -3.69607e-17 1.28481e-16)
(0 1.32141e-17 1.42839e-16)
(0 -9.099e-17 -8.45153e-17)
(0 -1.52052e-17 -3.87655e-16)
(0 -6.25707e-17 -1.22408e-16)
(0 7.95261e-17 5.02822e-16)
(0 2.26585e-17 -3.50267e-16)
(0 -1.56593e-17 -2.95103e-16)
(0 -1.0267e-16 2.22264e-16)
(0 3.00519e-18 8.7832e-17)
(0 -1.03297e-16 -3.18065e-16)
(0 4.16334e-17 -4.3401e-16)
(0 -2.59659e-17 -3.9502e-16)
(0 -1.0267e-16 2.41504e-16)
(0 2.25358e-17 -3.90591e-16)
(0 7.95831e-17 -6.56436e-17)
(0 7.95261e-17 1.04948e-16)
(0 9.8472e-17 -1.22408e-16)
(0 2.26872e-17 -3.87655e-16)
(0 -4.36245e-17 -1.22408e-16)
(0 9.8472e-17 -1.22408e-16)
(0 -2.23083e-17 6.46617e-17)
(0 -2.23083e-17 -1.54567e-16)
(0 -5.88464e-17 5.94464e-16)
(0 1.42298e-17 -1.91105e-16)
(0 7.81718e-17 -2.66836e-17)
(0 3.24853e-17 -8.40468e-18)
(0 -5.04209e-17 8.75386e-16)
(0 -8.81912e-17 2.51327e-16)
(0 4.39421e-18 2.15004e-16)
(0 -9.81124e-17 -2.32154e-16)
(0 1.06848e-16 2.33665e-16)
(0 -8.87037e-17 2.33624e-16)
(0 2.3087e-17 -1.93786e-16)
(0 4.16334e-17 4.88758e-16)
(0 5.99294e-17 2.84332e-16)
(0 -8.62512e-17 -2.66836e-17)
(0 -8.625e-17 1.74276e-16)
(0 6.90369e-17 1.74276e-16)
(0 -6.7981e-17 -2.66835e-17)
(0 -1.13654e-16 1.74276e-16)
(0 1.4733e-16 1.32819e-16)
(0 9.44819e-17 -9.61906e-17)
(0 -9.92959e-17 7.9971e-17)
(0 1.12098e-16 -4.33421e-17)
(0 1.12099e-16 -3.78052e-16)
(0 -1.12914e-17 1.68314e-16)
(0 -4.71104e-17 -2.56525e-16)
(0 1.48176e-17 -1.51051e-16)
(0 -5.70913e-17 3.50865e-16)
(0 -1.02097e-16 4.56469e-17)
(0 9.55321e-17 -2.23847e-16)
(0 -5.70913e-17 -5.64582e-16)
(0 -3.8814e-17 -4.19209e-16)
(0 -4.71104e-17 5.59918e-16)
(0 7.69165e-17 -4.49141e-16)
(0 -1.3453e-16 7.99719e-17)
(0 1.29714e-16 1.32819e-16)
(0 2.17795e-16 5.73224e-16)
(0 2.17795e-16 -1.13807e-16)
(0 -4.64475e-17 9.75872e-17)
(0 7.66004e-18 4.6781e-16)
(0 -1.9618e-16 -5.8776e-17)
(0 2.46467e-17 -2.96589e-16)
(0 -7.72733e-17 1.28077e-16)
(0 5.86202e-17 2.61576e-17)
(0 1.09676e-16 1.11264e-16)
(0 1.95627e-16 4.02889e-16)
(0 -1.99615e-16 2.67081e-17)
(0 -6.21925e-17 1.13282e-16)
(0 -1.14279e-16 1.82606e-16)
(0 -1.03375e-17 -3.54427e-16)
(0 1.10851e-16 9.59779e-17)
(0 1.27793e-16 3.71348e-16)
(0 1.95627e-16 -1.10422e-16)
(0 1.60707e-16 -2.45957e-16)
(0 1.26567e-16 -3.98512e-16)
(0 -1.4522e-16 7.90557e-16)
(0 2.115e-16 -5.8776e-17)
(0 -2.63133e-17 1.28077e-16)
(0 1.26567e-16 1.79037e-16)
(0 -5.66449e-17 -7.53282e-18)
(0 -2.38855e-17 -7.4462e-16)
(0 1.23532e-16 3.52821e-16)
(0 -7.30246e-17 -5.6672e-17)
(0 1.72672e-16 2.21785e-16)
(0 -1.87996e-16 7.44828e-17)
(0 2.51385e-17 1.24472e-16)
(0 1.57903e-16 -6.88495e-16)
(0 5.83152e-17 7.58369e-17)
(0 -5.85907e-17 -2.43712e-17)
(0 1.91969e-16 1.42669e-16)
(0 1.41724e-16 7.58369e-17)